
                                 *****************
                                 * O   R   C   A *
                                 *****************

                                            #,                                       
                                            ###                                      
                                            ####                                     
                                            #####                                    
                                            ######                                   
                                           ########,                                 
                                     ,,################,,,,,                         
                               ,,#################################,,                 
                          ,,##########################################,,             
                       ,#########################################, ''#####,          
                    ,#############################################,,   '####,        
                  ,##################################################,,,,####,       
                ,###########''''           ''''###############################       
              ,#####''   ,,,,##########,,,,          '''####'''          '####       
            ,##' ,,,,###########################,,,                        '##       
           ' ,,###''''                  '''############,,,                           
         ,,##''                                '''############,,,,        ,,,,,,###''
      ,#''                                            '''#######################'''  
     '                                                          ''''####''''         
             ,#######,   #######,   ,#######,      ##                                
            ,#'     '#,  ##    ##  ,#'     '#,    #''#        ,####,   ,####,        
            ##       ##  ##   ,#'  ##            #'  '#       #'       #'  '#        
            ##       ##  #######   ##           ,######,      #####,   #    #        
            '#,     ,#'  ##    ##  '#,     ,#' ,#      #,     #,   #   #,  ,#        
             '#######'   ##     ##  '#######'  #'      '#     '####' # '####'        



                #########################################################
                #                        -***-                          #
                #          Department of theory and spectroscopy        #
                #                                                       #
                #                      Frank Neese                      #
                #                                                       #
                #     Directorship, Architecture, Infrastructure        #
                #                    SHARK, DRIVERS                     #
                #        Core code/Algorithms in most modules           #
                #                                                       #
                #        Max Planck Institute fuer Kohlenforschung      #
                #                Kaiser Wilhelm Platz 1                 #
                #                 D-45470 Muelheim/Ruhr                 #
                #                      Germany                          #
                #                                                       #
                #                  All rights reserved                  #
                #                        -***-                          #
                #########################################################


                         Program Version 6.0.0  -   RELEASE   -


 With contributions from (in alphabetic order):
   Daniel Aravena         : Magnetic Suceptibility
   Michael Atanasov       : Ab Initio Ligand Field Theory (pilot matlab implementation)
   Alexander A. Auer      : GIAO ZORA, VPT2 properties, NMR spectrum
   Ute Becker             : All parallelization in ORCA, NUMFREQ, NUMCALC
   Giovanni Bistoni       : ED, misc. LED, open-shell LED, HFLD
   Martin Brehm           : Molecular dynamics
   Dmytro Bykov           : pre 5.0 version of the SCF Hessian
   Marcos Casanova-Páez   : Triplet and SCS-CIS(D). UHF-(DLPNO)-IP/EA/STEOM-CCSD. UHF-CVS-IP/STEOM-CCSD
   Vijay G. Chilkuri      : MRCI spin determinant printing, contributions to CSF-ICE
   Pauline Colinet        : FMM embedding
   Dipayan Datta          : RHF DLPNO-CCSD density
   Achintya Kumar Dutta   : EOM-CC, STEOM-CC
   Nicolas Foglia         : Exact transition moments, OPA infrastructure, MCD improvements
   Dmitry Ganyushin       : Spin-Orbit,Spin-Spin,Magnetic field MRCI
   Miquel Garcia          : C-PCM and meta-GGA Hessian, CCSD/C-PCM, Gaussian charge scheme
   Tiago L. C. Gouveia    : GS-ROHF, GS-ROCIS
   Yang Guo               : DLPNO-NEVPT2, F12-NEVPT2, CIM, IAO-localization
   Andreas Hansen         : Spin unrestricted coupled pair/coupled cluster methods
   Ingolf Harden          : AUTO-CI MPn and infrastructure 
   Benjamin Helmich-Paris : MC-RPA, TRAH-(SCF,CASSCF), AVAS, COSX integrals, SCF dyn. polar.
   Lee Huntington         : MR-EOM, pCC
   Robert Izsak           : Overlap fitted RIJCOSX, COSX-SCS-MP3, EOM
   Riya Kayal             : Wick's Theorem for AUTO-CI, AUTO-CI UHF-CCSDT
   Emily Kempfer          : AUTO-CI, RHF CISDT and CCSDT
   Christian Kollmar      : KDIIS, OOCD, Brueckner-CCSD(T), CCSD density, CASPT2, CASPT2-K, improved NEVPT2
   Axel Koslowski         : Symmetry handling
   Simone Kossmann        : Meta GGA functionals, TD-DFT gradient, OOMP2, (MP2 Hessian; deprecated post 5.0)
   Lucas Lang             : DCDCAS
   Marvin Lechner         : AUTO-CI (C++ implementation), FIC-MRCC
   Spencer Leger          : CASSCF response
   Dagmar Lenk            : GEPOL surface, SMD, ORCA-2-JSON
   Dimitrios Liakos       : Extrapolation schemes; Compound Job, initial MDCI parallelization
   Dimitrios Manganas     : Further ROCIS development; embedding schemes. LFT, Crystal Embedding
   Dimitrios Pantazis     : SARC Basis sets
   Anastasios Papadopoulos: AUTO-CI, single reference methods and gradients
   Taras Petrenko         : pre 6.0 DFT Hessian and TD-DFT gradient, (ASA, deprecated), ECA, 1-Electron XAS/XES, NRVS
   Peter Pinski           : DLPNO-MP2, DLPNO-MP2 Gradient
   Christoph Reimann      : Effective Core Potentials
   Marius Retegan         : Local ZFS, SOC
   Christoph Riplinger    : Optimizer, TS searches, QM/MM, DLPNO-CCSD(T), (RO)-DLPNO pert. Triples
   Michael Roemelt        : Original ROCIS implementation
   Masaaki Saitow         : Open-shell DLPNO-CCSD energy and density
   Barbara Sandhoefer     : DKH picture change effects
   Kantharuban Sivalingam : CASSCF convergence/infrastructure, NEVPT2 and variants, FIC-MRCI
   Bernardo de Souza      : ESD, SOC TD-DFT
   Georgi Stoychev        : AutoAux, RI-MP2 NMR, DLPNO-MP2 response, X2C
   Van Anh Tran           : RI-MP2 g-tensors
   Willem Van den Heuvel  : Paramagnetic NMR
   Zikuan Wang            : NOTCH, Electric field optimization 
   Frank Wennmohs         : Technical directorship and infrastructure
   Hang Xu                : AUTO-CI-Response properties 


 We gratefully acknowledge several colleagues who have allowed us to
 interface, adapt or use parts of their codes:
   Stefan Grimme, W. Hujo, H. Kruse, P. Pracht,  : VdW corrections, initial TS optimization,
                  C. Bannwarth, S. Ehlert,         DFT functionals, gCP, sTDA/sTD-DF
                  L. Wittmann, M. Mueller
   Ed Valeev, F. Pavosevic, A. Kumar             : LibInt (2-el integral package), F12 methods
   Garnet Chan, S. Sharma, J. Yang, R. Olivares  : DMRG
   Ulf Ekstrom                                   : XCFun DFT Library
   Mihaly Kallay                                 : mrcc  (arbitrary order and MRCC methods)
   Frank Weinhold                                : gennbo (NPA and NBO analysis)
   Simon Mueller                                 : openCOSMO-RS
   Christopher J. Cramer and Donald G. Truhlar   : smd solvation model
   Lars Goerigk                                  : TD-DFT with DH, B97 family of functionals
   V. Asgeirsson, H. Jonsson                     : NEB implementation
   FAccTs GmbH                                   : IRC, NEB, NEB-TS, DLPNO-Multilevel, CI-OPT
                                                   MM, QMMM, 2- and 3-layer-ONIOM, Crystal-QMMM,
                                                   LR-CPCM, SF, NACMEs, symmetry and pop. for TD-DFT,
                                                   nearIR, NL-DFT gradient (VV10), updates on ESD,
                                                   ML-optimized integration grids, MBIS, APM,
                                                   GOAT, DOCKER, SOLVATOR, interface openCOSMO-RS
   S Lehtola, MJT Oliveira, MAL Marques          : LibXC Library
   Liviu Ungur et al                             : ANISO software


 Your calculation uses the libint2 library for the computation of 2-el integrals
 For citations please refer to: http://libint.valeyev.net

 Your ORCA version has been built with support for libXC version: 6.2.2
 For citations please refer to: https://libxc.gitlab.io

 This ORCA versions uses:
   CBLAS   interface :  Fast vector & matrix operations
   LAPACKE interface :  Fast linear algebra routines
   Shared memory     :  Shared parallel matrices


Warning: RI is on but no J-basis has been assigned. Assigning Def2/J (nothing to worry about!)
================================================================================

----- Orbital basis set information -----
Your calculation utilizes the basis: def2-SVP
   F. Weigend and R. Ahlrichs, Phys. Chem. Chem. Phys. 7, 3297 (2005).

----- AuxJ basis set information -----
Your calculation utilizes the auxiliary basis: def2/J
   F. Weigend, Phys. Chem. Chem. Phys. 8, 1057 (2006).

================================================================================
                                        WARNINGS
                       Please study these warnings very carefully!
================================================================================


WARNING: your system is open-shell and RHF/RKS was chosen
  ===> : WILL SWITCH to UHF/UKS


WARNING: Geometry Optimization
  ===> : Switching off AutoStart
         For restart on a previous wavefunction, please use MOREAD

================================================================================
                                       INPUT FILE
================================================================================
NAME = file_input.inp
|  1> # optimasi triazine
|  2> # baris kode yang diawali tagar tidak akan dieksekusi
|  3> ! PBE def2-SVP Opt
|  4> ! Normalprint
|  5> %output
|  6> Print[P_Basis]2
|  7> Print[P_MOs]1
|  8> end
|  9> * xyz 2 2
| 10> 	Cu         -0.20460008005441      0.43218027400908      0.00016292782573
| 11> 	  N          -0.24458974571855      2.47969359585069     -0.32309708191488
| 12> 	  N          -2.25217544941240      0.39210769314343      0.32318159791095
| 13> 	  N          -0.16444666455911     -1.61578800459621     -0.32308826445427
| 14> 	  N           1.84346168607796      0.47206966873791      0.32304288919787
| 15> 	  H          -0.25566092006678      3.04135531480934      0.54679824452548
| 16> 	  H          -1.07055063962565      2.78845725171347     -0.86429022115993
| 17> 	  H           0.56980116090773      2.82042787265361     -0.86268316876183
| 18> 	  H          -2.81369547217601      0.38076690527887     -0.54680043414375
| 19> 	  H          -2.59341594695398      1.20536713532680      0.86410896498554
| 20> 	  H          -2.56053055723227     -0.43495865531866      0.86296020598164
| 21> 	  H          -0.15119799529436     -2.17818794223373      0.54629594489315
| 22> 	  H          -0.97836694234652     -1.95719437539440     -0.86290125651054
| 23> 	  H           0.66183170394423     -1.92297918588761     -0.86475888330735
| 24> 	  H           2.40578318438072      0.48148261847811     -0.54643890740706
| 25> 	  H           2.15249777822645      1.29858033629233      0.86322708265146
| 26> 	  H           2.18317489990293     -0.34168050286303      0.86426035968779
| 27> *
| 28> 
| 29> 
| 30>                          ****END OF INPUT****
================================================================================

                       *****************************
                       * Geometry Optimization Run *
                       *****************************

Geometry optimization settings:
Update method            Update   .... BFGS
Choice of coordinates    CoordSys .... (2022) Redundant Internals
Initial Hessian          InHess   .... Almloef's Model
Max. no of cycles        MaxIter  .... 51

Convergence Tolerances:
Energy Change            TolE     ....  5.0000e-06 Eh
Max. Gradient            TolMAXG  ....  3.0000e-04 Eh/bohr
RMS Gradient             TolRMSG  ....  1.0000e-04 Eh/bohr
Max. Displacement        TolMAXD  ....  4.0000e-03 bohr
RMS Displacement         TolRMSD  ....  2.0000e-03 bohr
Strict Convergence                .... False

------------------------------------------------------------------------------
                        ORCA OPTIMIZATION COORDINATE SETUP
------------------------------------------------------------------------------

The optimization will be done in redundant internal coordinates (2022)
Making redundant internal coordinates   ...  (2022 redundants) done
Evaluating the initial hessian          ...  (Almloef) done
Evaluating the coordinates              ...  done
Calculating the B-matrix                .... done
Calculating the G-matrix                .... done
Diagonalizing the G-matrix              .... done
The first mode is                       ....   25
The number of degrees of freedom        ....   45

    -----------------------------------------------------------------
                    Redundant Internal Coordinates


    -----------------------------------------------------------------
         Definition                    Initial Value    Approx d2E/dq
    -----------------------------------------------------------------
      1. B(N   1,Cu  0)                  2.0733         0.460153   
      2. B(N   2,Cu  0)                  2.0733         0.460111   
      3. B(N   3,Cu  0)                  2.0737         0.459391   
      4. B(N   4,Cu  0)                  2.0737         0.459342   
      5. B(H   5,N   1)                  1.0355         0.393983   
      6. B(H   6,N   1)                  1.0346         0.395291   
      7. B(H   7,N   1)                  1.0346         0.395257   
      8. B(H   8,N   2)                  1.0355         0.393984   
      9. B(H   9,N   2)                  1.0346         0.395290   
     10. B(H  10,N   2)                  1.0346         0.395259   
     11. B(H  11,N   3)                  1.0355         0.393987   
     12. B(H  12,N   3)                  1.0346         0.395301   
     13. B(H  13,N   3)                  1.0347         0.395240   
     14. B(H  14,N   4)                  1.0355         0.393991   
     15. B(H  15,N   4)                  1.0346         0.395301   
     16. B(H  16,N   4)                  1.0347         0.395239   
     17. A(N   3,Cu  0,N   4)           91.3835         0.486173   
     18. A(N   1,Cu  0,N   4)           91.3941         0.486322   
     19. A(N   1,Cu  0,N   2)           91.3942         0.486472   
     20. A(N   2,Cu  0,N   4)          162.0794         0.486313   
     21. A(N   2,Cu  0,N   3)           91.3936         0.486323   
     22. A(N   1,Cu  0,N   3)          162.0620         0.486331   
     23. A(Cu  0,N   1,H   5)          113.8839         0.374700   
     24. A(H   6,N   1,H   7)          104.9098         0.294658   
     25. A(H   5,N   1,H   7)          105.5391         0.294504   
     26. A(Cu  0,N   1,H   7)          113.0397         0.374908   
     27. A(H   5,N   1,H   6)          105.6058         0.294508   
     28. A(Cu  0,N   1,H   6)          113.0593         0.374914   
     29. A(Cu  0,N   2,H   9)          113.0788         0.374908   
     30. A(Cu  0,N   2,H   8)          113.8819         0.374694   
     31. A(H   8,N   2,H   9)          105.6052         0.294508   
     32. A(H   9,N   2,H  10)          104.9091         0.294659   
     33. A(H   8,N   2,H  10)          105.5418         0.294505   
     34. A(Cu  0,N   2,H  10)          113.0209         0.374903   
     35. A(H  12,N   3,H  13)          104.8997         0.294658   
     36. A(H  11,N   3,H  13)          105.5493         0.294503   
     37. A(Cu  0,N   3,H  13)          112.9724         0.374798   
     38. A(H  11,N   3,H  12)          105.5984         0.294510   
     39. A(Cu  0,N   3,H  12)          113.0782         0.374808   
     40. A(Cu  0,N   3,H  11)          113.9377         0.374593   
     41. A(H  15,N   4,H  16)          104.8989         0.294658   
     42. A(H  14,N   4,H  16)          105.5494         0.294503   
     43. A(Cu  0,N   4,H  16)          112.9909         0.374791   
     44. A(H  14,N   4,H  15)          105.6008         0.294510   
     45. A(Cu  0,N   4,H  15)          113.0577         0.374802   
     46. A(Cu  0,N   4,H  14)          113.9382         0.374587   
     47. D(H   6,N   1,Cu  0,N   4)    158.2950         0.002541   
     48. D(H   6,N   1,Cu  0,N   2)    -39.4091         0.002541   
     49. D(H   5,N   1,Cu  0,N   4)    -81.1571         0.002541   
     50. D(H   5,N   1,Cu  0,N   2)     81.1389         0.002541   
     51. D(H   6,N   1,Cu  0,N   3)     59.4598         0.002541   
     52. D(H   5,N   1,Cu  0,N   3)   -179.9922         0.002541   
     53. D(H   8,N   2,Cu  0,N   1)     81.1593         0.002541   
     54. D(H   9,N   2,Cu  0,N   4)     59.4780         0.002541   
     55. D(H   9,N   2,Cu  0,N   3)    158.3205         0.002541   
     56. D(H   9,N   2,Cu  0,N   1)    -39.4013         0.002541   
     57. D(H   8,N   2,Cu  0,N   4)   -179.9614         0.002541   
     58. D(H   8,N   2,Cu  0,N   3)    -81.1189         0.002541   
     59. D(H  11,N   3,Cu  0,N   4)     81.0148         0.002538   
     60. D(H  11,N   3,Cu  0,N   2)    -81.2794         0.002538   
     61. D(H  11,N   3,Cu  0,N   1)    179.8516         0.002538   
     62. D(H  12,N   3,Cu  0,N   4)   -158.3919         0.002538   
     63. D(H  12,N   3,Cu  0,N   2)     39.3140         0.002538   
     64. D(H  12,N   3,Cu  0,N   1)    -59.5550         0.002538   
     65. D(H  15,N   4,Cu  0,N   3)   -158.3734         0.002538   
     66. D(H  15,N   4,Cu  0,N   2)    -59.5293         0.002538   
     67. D(H  15,N   4,Cu  0,N   1)     39.3499         0.002538   
     68. D(H  14,N   4,Cu  0,N   3)     81.0455         0.002538   
     69. D(H  14,N   4,Cu  0,N   2)    179.8895         0.002538   
     70. D(H  14,N   4,Cu  0,N   1)    -81.2312         0.002538   
    -----------------------------------------------------------------

Number of atoms                         .... 17
Number of degrees of freedom            .... 70


         *************************************************************
         *                GEOMETRY OPTIMIZATION CYCLE   1            *
         *************************************************************
---------------------------------
CARTESIAN COORDINATES (ANGSTROEM)
---------------------------------
  Cu    -0.204600    0.432180    0.000163
  N     -0.244590    2.479694   -0.323097
  N     -2.252175    0.392108    0.323182
  N     -0.164447   -1.615788   -0.323088
  N      1.843462    0.472070    0.323043
  H     -0.255661    3.041355    0.546798
  H     -1.070551    2.788457   -0.864290
  H      0.569801    2.820428   -0.862683
  H     -2.813695    0.380767   -0.546800
  H     -2.593416    1.205367    0.864109
  H     -2.560531   -0.434959    0.862960
  H     -0.151198   -2.178188    0.546296
  H     -0.978367   -1.957194   -0.862901
  H      0.661832   -1.922979   -0.864759
  H      2.405783    0.481483   -0.546439
  H      2.152498    1.298580    0.863227
  H      2.183175   -0.341681    0.864260

----------------------------
CARTESIAN COORDINATES (A.U.)
----------------------------
  NO LB      ZA    FRAG     MASS         X           Y           Z
   0 Cu   29.0000    0    63.550   -0.386638    0.816702    0.000308
   1 N     7.0000    0    14.007   -0.462208    4.685942   -0.610565
   2 N     7.0000    0    14.007   -4.255995    0.740976    0.610725
   3 N     7.0000    0    14.007   -0.310759   -3.053397   -0.610548
   4 N     7.0000    0    14.007    3.483638    0.892082    0.610463
   5 H     1.0000    0     1.008   -0.483129    5.747329    1.033299
   6 H     1.0000    0     1.008   -2.023048    5.269421   -1.633272
   7 H     1.0000    0     1.008    1.076768    5.329836   -1.630235
   8 H     1.0000    0     1.008   -5.317114    0.719545   -1.033303
   9 H     1.0000    0     1.008   -4.900846    2.277814    1.632929
  10 H     1.0000    0     1.008   -4.838702   -0.821953    1.630758
  11 H     1.0000    0     1.008   -0.285723   -4.116179    1.032350
  12 H     1.0000    0     1.008   -1.848846   -3.698561   -1.630647
  13 H     1.0000    0     1.008    1.250681   -3.633904   -1.634157
  14 H     1.0000    0     1.008    4.546271    0.909870   -1.032620
  15 H     1.0000    0     1.008    4.067631    2.453961    1.631263
  16 H     1.0000    0     1.008    4.125603   -0.645683    1.633215

--------------------------------
INTERNAL COORDINATES (ANGSTROEM)
--------------------------------
 Cu     0   0   0     0.000000000000     0.00000000     0.00000000
 N      1   0   0     2.073259995846     0.00000000     0.00000000
 N      1   2   0     2.073285259235    91.39420775     0.00000000
 N      1   2   3     2.073711093730   162.06204970    98.86888878
 N      1   2   3     2.073740492723    91.39410306   197.70407718
 H      2   1   3     1.035521287279   113.88393949    81.13886392
 H      2   1   3     1.034618967259   113.05926991   320.59092196
 H      2   1   3     1.034642711907   113.03965809   201.58324840
 H      3   1   2     1.035520200446   113.88185824    81.15931498
 H      3   1   2     1.034619936940   113.07875478   320.59873360
 H      3   1   2     1.034641272620   113.02094273   201.59145430
 H      4   1   2     1.035518285959   113.93772798   179.85162139
 H      4   1   2     1.034612292121   113.07819076   300.44499149
 H      4   1   2     1.034654253095   112.97240862    59.40454411
 H      5   1   2     1.035515652080   113.93821035   278.76880057
 H      5   1   2     1.034612078360   113.05769815    39.34993026
 H      5   1   2     1.034654898887   112.99091901   158.30702430

---------------------------
INTERNAL COORDINATES (A.U.)
---------------------------
 Cu     0   0   0     0.000000000000     0.00000000     0.00000000
 N      1   0   0     3.917893596564     0.00000000     0.00000000
 N      1   2   0     3.917941337451    91.39420775     0.00000000
 N      1   2   3     3.918746048024   162.06204970    98.86888878
 N      1   2   3     3.918801604070    91.39410306   197.70407718
 H      2   1   3     1.956851638803   113.88393949    81.13886392
 H      2   1   3     1.955146501079   113.05926991   320.59092196
 H      2   1   3     1.955191371962   113.03965809   201.58324840
 H      3   1   2     1.956849584986   113.88185824    81.15931498
 H      3   1   2     1.955148333511   113.07875478   320.59873360
 H      3   1   2     1.955188652103   113.02094273   201.59145430
 H      4   1   2     1.956845967129   113.93772798   179.85162139
 H      4   1   2     1.955133886897   113.07819076   300.44499149
 H      4   1   2     1.955213181647   112.97240862    59.40454411
 H      5   1   2     1.956840989821   113.93821035   278.76880057
 H      5   1   2     1.955133482948   113.05769815    39.34993026
 H      5   1   2     1.955214402017   112.99091901   158.30702430

---------------------
BASIS SET INFORMATION
---------------------
There are 3 groups of distinct atoms

 Group   1 Type Cu  : 14s9p5d1f contracted to 5s3p2d1f pattern {63311/531/41/1}
 Group   2 Type N   : 7s4p1d contracted to 3s2p1d pattern {511/31/1}
 Group   3 Type H   : 4s1p contracted to 2s1p pattern {31/1}

Atom   0Cu   basis set group =>   1
Atom   1N    basis set group =>   2
Atom   2N    basis set group =>   2
Atom   3N    basis set group =>   2
Atom   4N    basis set group =>   2
Atom   5H    basis set group =>   3
Atom   6H    basis set group =>   3
Atom   7H    basis set group =>   3
Atom   8H    basis set group =>   3
Atom   9H    basis set group =>   3
Atom  10H    basis set group =>   3
Atom  11H    basis set group =>   3
Atom  12H    basis set group =>   3
Atom  13H    basis set group =>   3
Atom  14H    basis set group =>   3
Atom  15H    basis set group =>   3
Atom  16H    basis set group =>   3

-------------------------
BASIS SET IN INPUT FORMAT
-------------------------

 # Basis set for element : H 
 NewGTO H 
 S 3 
   1      13.0107010000      0.0334854848
   2       1.9622572000      0.2347218709
   3       0.4445379600      0.8137702853
 S 1 
   1       0.1219496200      1.0000000000
 P 1 
   1       0.8000000000      1.0000000000
  end;

 # Basis set for element : N 
 NewGTO N 
 S 5 
   1    1712.8415853000     -0.0054477995
   2     257.6481267700     -0.0406271746
   3      58.4582458530     -0.1811196225
   4      16.1983679050     -0.4684397556
   5       5.0052600809     -0.4461684629
 S 1 
   1       0.5873185657      1.0000000000
 S 1 
   1       0.1876459225      1.0000000000
 P 3 
   1      13.5714702330     -0.0588481170
   2       2.9257372874     -0.3202462476
   3       0.7992775075     -0.7532822652
 P 1 
   1       0.2195434803      1.0000000000
 D 1 
   1       1.0000000000      1.0000000000
  end;

 # Basis set for element : Cu
 NewGTO Cu
 S 6 
   1   76381.3480560000      0.0017411331
   2   11468.7774990000      0.0133435321
   3    2609.4246495000      0.0662074481
   4     736.7503309800      0.2306372575
   5     239.8241995800      0.4685822623
   6      82.6568292520      0.3618103005
 S 3 
   1     160.1354419600     -0.1088222611
   2      18.8341776950      0.6379833109
   3       7.7176595741      0.4370797136
 S 3 
   1      13.7108467170     -0.2218488933
   2       2.2349895670      0.7126082935
   3       0.8781836007      0.4197507843
 S 1 
   1       0.0871874581      1.0000000000
 S 1 
   1       0.0329691147      1.0000000000
 P 5 
   1     991.2407578200      0.0089731212
   2     233.6937611600      0.0671066792
   3      74.0209309270      0.2611644630
   4      26.6649674470      0.5121374487
   5       9.9192087478      0.3304833410
 P 3 
   1       5.1519553926      0.3351091891
   2       1.9638205828      0.5527203012
   3       0.7156009704      0.2357337167
 D 4 
   1      47.3350495900      0.0383846832
   2      13.1616660770      0.1993031660
   3       4.3693777244      0.4561944830
   4       1.4132925109      0.5471325983
 D 1 
   1       0.3887800145      1.0000000000
 P 1 
   1       0.1550650000      1.0000000000
 F 1 
   1       2.2330000000      1.0000000000
  end;

---------------------------------
AUXILIARY/J BASIS SET INFORMATION
---------------------------------
There are 3 groups of distinct atoms

 Group   1 Type Cu  : 19s5p5d3f3g contracted to 8s5p4d3f3g pattern {121111111/11111/2111/111/111}
 Group   2 Type N   : 12s5p4d2f1g contracted to 6s4p3d1f1g pattern {711111/2111/211/2/1}
 Group   3 Type H   : 5s2p1d contracted to 3s1p1d pattern {311/2/1}

Atom   0Cu   basis set group =>   1
Atom   1N    basis set group =>   2
Atom   2N    basis set group =>   2
Atom   3N    basis set group =>   2
Atom   4N    basis set group =>   2
Atom   5H    basis set group =>   3
Atom   6H    basis set group =>   3
Atom   7H    basis set group =>   3
Atom   8H    basis set group =>   3
Atom   9H    basis set group =>   3
Atom  10H    basis set group =>   3
Atom  11H    basis set group =>   3
Atom  12H    basis set group =>   3
Atom  13H    basis set group =>   3
Atom  14H    basis set group =>   3
Atom  15H    basis set group =>   3
Atom  16H    basis set group =>   3

-------------------------------------
AUXILIARY/J BASIS SET IN INPUT FORMAT
-------------------------------------

 # Auxiliary/J basis set for element : H 
 NewAuxJGTO H 
 S 3 
   1      15.6752927000      0.1007184237
   2       3.6063578000      0.3404257499
   3       1.2080016000      0.6491996172
 S 1 
   1       0.4726794000      1.0000000000
 S 1 
   1       0.2018100000      1.0000000000
 P 2 
   1       2.0281365000      0.5596620919
   2       0.5358730000      0.5596620919
 D 1 
   1       2.2165124000      1.0000000000
  end;

 # Auxiliary/J basis set for element : N 
 NewAuxJGTO N 
 S 7 
   1    2542.9401785000      0.0128431329
   2    1029.5472946000      0.0206655120
   3     424.9053546000      0.0652200677
   4     178.4573708000      0.1617388940
   5      76.1362742000      0.3094256941
   6      32.9338653000      0.3918849307
   7      14.4155436000      0.1822470660
 S 1 
   1       6.3718891000     -1.0000000000
 S 1 
   1       2.8381742000      1.0000000000
 S 1 
   1       1.2711793000      1.0000000000
 S 1 
   1       0.5712407000      1.0000000000
 S 1 
   1       0.2569887000      1.0000000000
 P 2 
   1      17.8975990000     -1.0974070137
   2       6.5346319000      0.1380055963
 P 1 
   1       2.3523645000      1.0000000000
 P 1 
   1       0.8397377000      1.0000000000
 P 1 
   1       0.2989335000      1.0000000000
 D 2 
   1       7.6909870000      0.1770780943
   2       2.3044972000      0.8918319220
 D 1 
   1       0.8403987000      1.0000000000
 D 1 
   1       0.3303797000      1.0000000000
 F 2 
   1       2.3331076000      0.6223178877
   2       0.8446137000      0.5036714203
 G 1 
   1       1.4037700000     -1.0000000000
  end;

 # Auxiliary/J basis set for element : Cu
 NewAuxJGTO Cu
 S 12 
   1   22760.1575320000      0.0282764819
   2    7272.8802874000      0.0691320820
   3    2725.0817134000      0.1660481474
   4    1480.3337422000      0.1462232042
   5     870.7845298000      0.2312796482
   6     533.0245964000      0.1980761869
   7     313.5438715000      0.1178844884
   8     112.8979167000     -0.0569562562
   9      66.4105374000      0.1110331733
  10      39.0650209000      0.2298430798
  11      22.9794234000      0.1324785707
  12      13.5173075000     -0.0781371994
 S 1 
   1       4.3193796000      1.0000000000
 S 1 
   1       2.5408114000      1.0000000000
 S 1 
   1       1.5552814000      1.0000000000
 S 1 
   1       0.9148714000      1.0000000000
 S 1 
   1       0.3294183000      1.0000000000
 S 1 
   1       0.1139855000      1.0000000000
 S 1 
   1       0.0670503000     -1.0000000000
 P 1 
   1      10.4327236000      1.0000000000
 P 1 
   1       4.0251086000     -1.0000000000
 P 1 
   1       1.5534382000      1.0000000000
 P 1 
   1       0.5996423000      1.0000000000
 P 1 
   1       0.2314823000     -1.0000000000
 D 2 
   1      19.6140080000     -1.0547292095
   2       7.2975860000      1.3124309240
 D 1 
   1       2.7500946000     -1.0000000000
 D 1 
   1       1.0444408000     -1.0000000000
 D 1 
   1       0.3976934000      1.0000000000
 F 1 
   1       5.8169042000     -1.0000000000
 F 1 
   1       0.7156542000      1.0000000000
 F 1 
   1       0.0892019000     -1.0000000000
 G 1 
   1      15.3794722000      1.0000000000
 G 1 
   1       4.2631148000      1.0000000000
 G 1 
   1       1.1926492000     -1.0000000000
  end;

------------------------------------------------------------------------------
                             ORCA STARTUP CALCULATIONS
                           -- RI-GTO INTEGRALS CHOSEN --
------------------------------------------------------------------------------
------------------------------------------------------------------------------
                   ___                                                        
                  /   \      - P O W E R E D   B Y -                         
                 /     \                                                     
                 |  |  |   _    _      __       _____    __    __             
                 |  |  |  | |  | |    /  \     |  _  \  |  |  /  |          
                  \  \/   | |  | |   /    \    | | | |  |  | /  /          
                 / \  \   | |__| |  /  /\  \   | |_| |  |  |/  /          
                |  |  |   |  __  | /  /__\  \  |    /   |      \           
                |  |  |   | |  | | |   __   |  |    \   |  |\   \          
                \     /   | |  | | |  |  |  |  | |\  \  |  | \   \       
                 \___/    |_|  |_| |__|  |__|  |_| \__\ |__|  \__/        
                                                                              
                      - O R C A' S   B I G   F R I E N D -                    
                                      &                                       
                       - I N T E G R A L  F E E D E R -                       
                                                                              
 v1 FN, 2020, v2 2021, v3 2022-2024                                           
------------------------------------------------------------------------------


----------------------
SHARK INTEGRAL PACKAGE
----------------------

Number of atoms                             ...     17
Number of basis functions                   ...    147
Number of shells                            ...     71
Maximum angular momentum                    ...      3
Integral batch strategy                     ... SHARK/LIBINT Hybrid
RI-J (if used) integral strategy            ... SPLIT-RIJ (Revised 2003 algorithm where possible)
Printlevel                                  ...      1
Contraction scheme used                     ... SEGMENTED contraction
Prescreening option                         ... SCHWARTZ
   Thresh                                   ... 2.500e-11
   Tcut                                     ... 2.500e-12
   Tpresel                                  ... 2.500e-12 
Coulomb Range Separation                    ... NOT USED
Exchange Range Separation                   ... NOT USED
Multipole approximations                    ... NOT USED
Finite Nucleus Model                        ... NOT USED
CABS basis                                  ... NOT available
Auxiliary Coulomb fitting basis             ... AVAILABLE
   # of basis functions in Aux-J            ...    419
   # of shells in Aux-J                     ...    143
   Maximum angular momentum in Aux-J        ...      4
Auxiliary J/K fitting basis                 ... NOT available
Auxiliary Correlation fitting basis         ... NOT available
Auxiliary 'external' fitting basis          ... NOT available

Checking pre-screening integrals            ... done (  0.0 sec) Dimension = 71
Check shell pair data                       ... done (  0.0 sec)
Shell pair information
Shell pair cut-off parameter TPreSel        ...   2.5e-12
Total number of shell pairs                 ...      2556
Shell pairs after pre-screening             ...      2456
Total number of primitive shell pairs       ...      9581
Primitive shell pairs kept                  ...      6677
          la=0 lb=0:    831 shell pairs
          la=1 lb=0:    915 shell pairs
          la=1 lb=1:    250 shell pairs
          la=2 lb=0:    242 shell pairs
          la=2 lb=1:    126 shell pairs
          la=2 lb=2:     21 shell pairs
          la=3 lb=0:     41 shell pairs
          la=3 lb=1:     23 shell pairs
          la=3 lb=2:      6 shell pairs
          la=3 lb=3:      1 shell pairs

Calculating one electron integrals          ... done (  0.1 sec)
Calculating RI/J V-Matrix + Cholesky decomp.... done (  0.1 sec)
Calculating Nuclear repulsion               ... done (  0.0 sec) ENN=    414.332201643529 Eh

Diagonalization of the overlap matrix:
Smallest eigenvalue                        ... 1.537e-02
Time for diagonalization                   ...    0.008 sec
Threshold for overlap eigenvalues          ... 1.000e-07
Number of eigenvalues below threshold      ... 0
Time for construction of square roots      ...    0.004 sec
Total time needed                          ...    0.013 sec

-------------------
DFT GRID GENERATION
-------------------

General Integration Accuracy     IntAcc      ... 4.388
Radial Grid Type                 RadialGrid  ... OptM3 with GC (2021)
Angular Grid (max. ang.)         AngularGrid ... 4 (Lebedev-302)
Angular grid pruning method      GridPruning ... 4 (adaptive)
Weight generation scheme         WeightScheme... mBecke (2022)
Basis function cutoff            BFCut       ... 1.0000e-11
Integration weight cutoff        WCut        ... 1.0000e-14
Partially contracted basis set               ... off
Rotationally invariant grid construction     ... off
Angular grids for H and He will be reduced by one unit
Core-polarized basis detected: some atoms will have their core
                               angular grid increased.

Total number of grid points                  ...    74103
Total number of batches                      ...     1165
Average number of points per batch           ...       63
Average number of grid points per atom       ...     4359
Initializing property integral containers    ... done (  0.0 sec)

SHARK setup successfully completed in   2.3 seconds

Maximum memory used throughout the entire STARTUP-calculation: 32.8 MB
-------------------------------------------------------------------------------
                                 ORCA GUESS
                   Start orbitals & Density for SCF / CASSCF
-------------------------------------------------------------------------------

------------
SCF SETTINGS
------------
Hamiltonian:
 Density Functional     Method          .... DFT(GTOs)
 Exchange Functional    Exchange        .... PBE
   PBE kappa parameter   XKappa         ....  0.804000
   PBE mue parameter    XMuePBE         ....  0.219520
 Correlation Functional Correlation     .... PBE
   PBE beta parameter  CBetaPBE         ....  0.066725
 LDA part of GGA corr.  LDAOpt          .... PW91-LDA
 Gradients option       PostSCFGGA      .... off
   NL short-range parameter             ....  6.400000
 RI-approximation to the Coulomb term is turned on
   Number of AuxJ basis functions       .... 419


General Settings:
 Integral files         IntName         .... file_input
 Hartree-Fock type      HFTyp           .... UHF
 Total Charge           Charge          ....    2
 Multiplicity           Mult            ....    2
 Number of Electrons    NEL             ....   67
 Basis Dimension        Dim             ....  147
 Nuclear Repulsion      ENuc            ....    414.3322016435 Eh

Convergence Acceleration:
 AO-DIIS                CNVDIIS         .... on
   Start iteration      DIISMaxIt       ....    12
   Startup error        DIISStart       ....  0.200000
   # of expansion vecs  DIISMaxEq       ....     5
   Bias factor          DIISBfac        ....   1.050
   Max. coefficient     DIISMaxC        ....  10.000
 MO-DIIS                CNVKDIIS        .... off
 Trust-Rad. Augm. Hess. CNVTRAH         .... auto
   Auto Start mean grad. ratio tolernc. ....  1.125000
   Auto Start start iteration           ....    50
   Auto Start num. interpolation iter.  ....    10
   Max. Number of Micro iterations      ....    24
   Max. Number of Macro iterations      .... Maxiter - #DIIS iter
   Number of Davidson start vectors     ....     2
   Converg. threshold    (grad. norm)   ....   1.000e-05
   Grad. Scal. Fac. for Micro threshold ....   0.100
   Minimum threshold for Micro iter.    ....   1.000e-02
   NR start threshold (gradient norm)   ....   1.000e-04
   Initial trust radius                 ....   0.400
   Minimum AH scaling param. (alpha)    ....   1.000
   Maximum AH scaling param. (alpha)    .... 1000.000
   Quad. conv. algorithm                .... NR
   White noise on init. David. guess    .... on
   Maximum white noise                  ....   0.010
   Pseudo random numbers                .... off
   Inactive MOs                         .... canonical
   Orbital update algorithm             .... Taylor
   Preconditioner                       .... Diag
   Full preconditioner red. dimension   ....   250
 SOSCF                  CNVSOSCF        .... on
   Start iteration      SOSCFMaxIt      ....   150
   Startup grad/error   SOSCFStart      ....  0.003300
   Hessian update       SOSCFHessUp     .... L-BFGS
 Level Shifting         CNVShift        .... on
   Level shift para.    LevelShift      ....    0.2500
   Turn off err/grad.   ShiftErr        ....    0.0010
 Zerner damping         CNVZerner       .... off
 Static damping         CNVDamp         .... on
   Fraction old density DampFac         ....    0.7000
   Max. Damping (<1)    DampMax         ....    0.9800
   Min. Damping (>=0)   DampMin         ....    0.0000
   Turn off err/grad.   DampErr         ....    0.1000

SCF Procedure:
 Maximum # iterations   MaxIter         ....   125
 SCF integral mode      SCFMode         .... Direct
   Integral package                     .... SHARK and LIBINT hybrid scheme
 Reset frequency        DirectResetFreq ....    20
 Integral Threshold     Thresh          ....  2.500e-11 Eh
 Primitive CutOff       TCut            ....  2.500e-12 Eh

Convergence Tolerance:
 Convergence Check Mode ConvCheckMode   .... Total+1el-Energy
 Convergence forced     ConvForced      .... 0
 Energy Change          TolE            ....  1.000e-08 Eh
 1-El. energy change                    ....  1.000e-05 Eh
 Orbital Gradient       TolG            ....  1.000e-05
 Orbital Rotation angle TolX            ....  1.000e-05
 DIIS Error             TolErr          ....  5.000e-07

------------------------------
INITIAL GUESS: MODEL POTENTIAL
------------------------------
Loading Hartree-Fock densities                     ... done
Calculating cut-offs                               ... done
Initializing the effective Hamiltonian             ... done
Setting up the integral package (SHARK)            ... done
Starting the Coulomb interaction                   ... done (   0.3 sec)
Making the grid                                    ... done (   0.5 sec)
Mapping shells                                     ... done
Starting the XC term evaluation                    ... done (   0.5 sec)
  promolecular density results
     # of electrons  =     68.991146345
     EX              =    -95.216856327
     EC              =     -2.636558168
     EX+EC           =    -97.853414495
Transforming the Hamiltonian                       ... done (   0.0 sec)
Diagonalizing the Hamiltonian                      ... done (   0.0 sec)
Back transforming the eigenvectors                 ... done (   0.0 sec)
Now organizing SCF variables                       ... done
                      ------------------
                      INITIAL GUESS DONE (   1.4 sec)
                      ------------------
             **** ENERGY FILE WAS UPDATED (file_input.en.tmp) ****
Finished Guess after   1.6 sec
Maximum memory used throughout the entire GUESS-calculation: 16.8 MB

-------------------------------------------------------------------------------------------
                                      ORCA LEAN-SCF
                              memory conserving SCF solver
-------------------------------------------------------------------------------------------

----------------------------------------D-I-I-S--------------------------------------------
Iteration    Energy (Eh)           Delta-E    RMSDP     MaxDP     DIISErr   Damp  Time(sec)
-------------------------------------------------------------------------------------------
               ***  Starting incremental Fock matrix formation  ***
    1    -1865.0891959201485406     0.00e+00  2.04e-03  1.01e-01  1.02e-01  0.700   2.9
Warning: op=1 Small HOMO/LUMO gap (   0.098) - skipping pre-diagonalization
         Will do a full diagonalization
    2    -1865.2192696230908950    -1.30e-01  9.40e-04  4.39e-02  3.60e-02  0.700   2.6
                               ***Turning on AO-DIIS***
    3    -1865.2522597418151236    -3.30e-02  2.83e-04  6.80e-03  2.07e-02  0.700   2.6
    4    -1865.2746625102940925    -2.24e-02  3.83e-04  1.58e-02  1.35e-02  0.000   2.4
    5    -1865.3289467522490668    -5.43e-02  1.79e-04  9.23e-03  5.56e-03  0.000   2.4
                              *** Initializing SOSCF ***
---------------------------------------S-O-S-C-F--------------------------------------
Iteration    Energy (Eh)           Delta-E    RMSDP     MaxDP     MaxGrad    Time(sec)
--------------------------------------------------------------------------------------
    6    -1865.3296344697291715    -6.88e-04  6.94e-05  4.86e-03  1.51e-03     2.4
               *** Restarting incremental Fock matrix formation ***
    7    -1865.3296985361466795    -6.41e-05  6.79e-05  6.36e-03  1.63e-03     2.6
    8    -1865.3297021267021591    -3.59e-06  4.70e-05  1.41e-03  1.92e-03     2.5
    9    -1865.3297038023501955    -1.68e-06  4.01e-05  1.29e-03  9.25e-04     2.3
   10    -1865.3297113326489125    -7.53e-06  1.85e-05  6.43e-04  3.26e-04     2.2
   11    -1865.3297134188997006    -2.09e-06  1.27e-05  7.69e-04  2.12e-04     2.0
   12    -1865.3297147862408565    -1.37e-06  2.83e-06  1.73e-04  3.76e-05     2.1
   13    -1865.3297148181877674    -3.19e-08  7.10e-07  4.37e-05  1.42e-05     1.9
   14    -1865.3297148062501947     1.19e-08  1.74e-07  8.47e-06  2.14e-06     1.9
                  *** Gradient check signals convergence ***

               *****************************************************
               *                     SUCCESS                       *
               *           SCF CONVERGED AFTER  14 CYCLES          *
               *****************************************************

             **** ENERGY FILE WAS UPDATED (file_input.en.tmp) ****

----------------
TOTAL SCF ENERGY
----------------

Total Energy       :      -1865.32971480625019 Eh          -50758.20204 eV

Components:
Nuclear Repulsion  :        414.33220164352861 Eh           11274.55239 eV
Electronic Energy  :      -2279.66191644977880 Eh          -62032.75443 eV
One Electron Energy:      -3390.06371847397668 Eh          -92248.32359 eV
Two Electron Energy:       1110.40180202419788 Eh           30215.56916 eV

Virial components:
Potential Energy   :      -3724.20621650598423 Eh         -101340.80322 eV
Kinetic Energy     :       1858.87650169973426 Eh           50582.60118 eV
Virial Ratio       :          2.00347156634699

DFT components:
N(Alpha)           :       34.000038163281 electrons
N(Beta)            :       33.000038167290 electrons
N(Total)           :       67.000076330571 electrons
E(X)               :      -95.437647281781 Eh       
E(C)               :       -2.613401908878 Eh       
E(XC)              :      -98.051049190660 Eh       

---------------
SCF CONVERGENCE
---------------

  Last Energy change         ...   -1.1938e-08  Tolerance :   1.0000e-08
  Last MAX-Density change    ...    8.4732e-06  Tolerance :   1.0000e-07
  Last RMS-Density change    ...    1.7446e-07  Tolerance :   5.0000e-09
  Last DIIS Error            ...    1.5132e-03  Tolerance :   5.0000e-07
  Last Orbital Gradient      ...    2.1440e-06  Tolerance :   1.0000e-05
  Last Orbital Rotation      ...    1.1213e-05  Tolerance :   1.0000e-05


----------------------
UHF SPIN CONTAMINATION
----------------------

Warning: in a DFT calculation there is little theoretical justification to 
         calculate <S**2> as in Hartree-Fock theory. We will do it anyways
         but you should keep in mind that the values have only limited relevance

Expectation value of <S**2>     :     0.750992
Ideal value S*(S+1) for S=0.5   :     0.750000
Deviation                       :     0.000992

----------------
ORBITAL ENERGIES
----------------
                 SPIN UP ORBITALS
  NO   OCC          E(Eh)            E(eV) 
   0   1.0000    -321.956855     -8760.8914 
   1   1.0000     -38.747791     -1054.3810 
   2   1.0000     -34.054497      -926.6700 
   3   1.0000     -34.054496      -926.6699 
   4   1.0000     -34.045673      -926.4299 
   5   1.0000     -14.367472      -390.9588 
   6   1.0000     -14.367465      -390.9586 
   7   1.0000     -14.367465      -390.9586 
   8   1.0000     -14.367429      -390.9576 
   9   1.0000      -4.534515      -123.3904 
  10   1.0000      -3.079298       -83.7920 
  11   1.0000      -3.079294       -83.7918 
  12   1.0000      -3.044709       -82.8507 
  13   1.0000      -1.143146       -31.1066 
  14   1.0000      -1.135374       -30.8951 
  15   1.0000      -1.135371       -30.8950 
  16   1.0000      -1.130463       -30.7615 
  17   1.0000      -0.789665       -21.4879 
  18   1.0000      -0.778883       -21.1945 
  19   1.0000      -0.776866       -21.1396 
  20   1.0000      -0.776845       -21.1390 
  21   1.0000      -0.771083       -20.9822 
  22   1.0000      -0.771073       -20.9820 
  23   1.0000      -0.767638       -20.8885 
  24   1.0000      -0.757503       -20.6127 
  25   1.0000      -0.713974       -19.4282 
  26   1.0000      -0.707648       -19.2561 
  27   1.0000      -0.654507       -17.8101 
  28   1.0000      -0.654490       -17.8096 
  29   1.0000      -0.619355       -16.8535 
  30   1.0000      -0.605114       -16.4660 
  31   1.0000      -0.605103       -16.4657 
  32   1.0000      -0.603575       -16.4241 
  33   1.0000      -0.539956       -14.6930 
  34   0.0000      -0.341651        -9.2968 
  35   0.0000      -0.281387        -7.6569 
  36   0.0000      -0.281361        -7.6562 
  37   0.0000      -0.273724        -7.4484 
  38   0.0000      -0.235560        -6.4099 
  39   0.0000      -0.226381        -6.1601 
  40   0.0000      -0.219672        -5.9776 
  41   0.0000      -0.219581        -5.9751 
  42   0.0000      -0.214810        -5.8453 
  43   0.0000      -0.213540        -5.8107 
  44   0.0000      -0.204569        -5.5666 

                 SPIN DOWN ORBITALS
  NO   OCC          E(Eh)            E(eV) 
   0   1.0000    -321.956794     -8760.8898 
   1   1.0000     -38.733672     -1053.9968 
   2   1.0000     -34.042028      -926.3307 
   3   1.0000     -34.040621      -926.2924 
   4   1.0000     -34.040619      -926.2923 
   5   1.0000     -14.364844      -390.8873 
   6   1.0000     -14.364838      -390.8871 
   7   1.0000     -14.364838      -390.8871 
   8   1.0000     -14.364803      -390.8861 
   9   1.0000      -4.507246      -122.6484 
  10   1.0000      -3.044261       -82.8385 
  11   1.0000      -3.044258       -82.8385 
  12   1.0000      -3.035268       -82.5939 
  13   1.0000      -1.139045       -30.9950 
  14   1.0000      -1.131293       -30.7840 
  15   1.0000      -1.131290       -30.7840 
  16   1.0000      -1.126243       -30.6466 
  17   1.0000      -0.787445       -21.4275 
  18   1.0000      -0.776798       -21.1378 
  19   1.0000      -0.774648       -21.0792 
  20   1.0000      -0.774627       -21.0787 
  21   1.0000      -0.768913       -20.9232 
  22   1.0000      -0.768903       -20.9229 
  23   1.0000      -0.765506       -20.8305 
  24   1.0000      -0.755337       -20.5538 
  25   1.0000      -0.705957       -19.2101 
  26   1.0000      -0.674056       -18.3420 
  27   1.0000      -0.644229       -17.5304 
  28   1.0000      -0.644212       -17.5299 
  29   1.0000      -0.610365       -16.6089 
  30   1.0000      -0.591197       -16.0873 
  31   1.0000      -0.591185       -16.0870 
  32   1.0000      -0.587587       -15.9891 
  33   0.0000      -0.500522       -13.6199 
  34   0.0000      -0.339662        -9.2427 
  35   0.0000      -0.280250        -7.6260 
  36   0.0000      -0.280224        -7.6253 
  37   0.0000      -0.273662        -7.4467 
  38   0.0000      -0.231090        -6.2883 
  39   0.0000      -0.225028        -6.1233 
  40   0.0000      -0.218191        -5.9373 
  41   0.0000      -0.218098        -5.9348 
  42   0.0000      -0.212941        -5.7944 
  43   0.0000      -0.211932        -5.7670 
*Only the first 10 virtual orbitals were printed.
------------------
MOLECULAR ORBITALS (UHF)
------------------
                      0         1         2         3         4         5   
                 -321.95685 -38.74779 -34.05450 -34.05450 -34.04567 -14.36747
                   1.00000   1.00000   1.00000   1.00000   1.00000   1.00000
                  --------  --------  --------  --------  --------  --------
  0Cu  1s         0.995395 -0.339463  0.000000  0.000000 -0.000000 -0.000000
  0Cu  2s         0.014622  1.045619 -0.000001 -0.000000  0.000001  0.000000
  0Cu  3s        -0.003247  0.017383  0.000000  0.000000  0.000000 -0.000004
  0Cu  4s         0.002971 -0.010108  0.000001  0.000000 -0.000000  0.000060
  0Cu  5s        -0.001312  0.004496  0.000000  0.000000 -0.000000 -0.000028
  0Cu  1pz       -0.000000  0.000001 -0.000098  0.000312 -0.993507 -0.000012
  0Cu  1px        0.000000  0.000001  0.849933 -0.514005 -0.000245 -0.000008
  0Cu  1py       -0.000000 -0.000000 -0.514005 -0.849933 -0.000216 -0.000007
  0Cu  2pz        0.000000 -0.000000 -0.000002  0.000006 -0.017718  0.000033
  0Cu  2px       -0.000000  0.000000  0.015804 -0.009558 -0.000005  0.000031
  0Cu  2py        0.000000 -0.000000 -0.009557 -0.015804 -0.000004  0.000027
  0Cu  1dz2       0.000087 -0.000486 -0.000000 -0.000000 -0.000000  0.000000
  0Cu  1dxz       0.000000 -0.000000  0.000106 -0.000070 -0.000000  0.000010
  0Cu  1dyz       0.000000 -0.000000  0.000070  0.000106  0.000000 -0.000008
  0Cu  1dx2y2    -0.000000  0.000000 -0.000000  0.000000 -0.000040  0.000090
  0Cu  1dxy      -0.000000  0.000000 -0.000000  0.000000 -0.000002  0.000004
  0Cu  2dz2      -0.000411  0.001389 -0.000000 -0.000000  0.000000 -0.000006
  0Cu  2dxz      -0.000000  0.000000 -0.000510  0.000336  0.000000 -0.000121
  0Cu  2dyz      -0.000000  0.000000 -0.000337 -0.000511 -0.000000  0.000095
  0Cu  2dx2y2     0.000000 -0.000000  0.000000 -0.000001  0.000186  0.001165
  0Cu  2dxy       0.000000 -0.000000 -0.000000 -0.000000  0.000007  0.000046
  0Cu  3pz       -0.000000  0.000000  0.000000 -0.000001  0.003339  0.000916
  0Cu  3px       -0.000000  0.000001 -0.007254  0.004388  0.000003 -0.001363
  0Cu  3py        0.000000 -0.000000  0.004387  0.007254  0.000002 -0.001157
  0Cu  1f0        0.000000 -0.000000  0.000000 -0.000000  0.000024 -0.000017
  0Cu  1f+1       0.000000  0.000000  0.000003 -0.000002  0.000000  0.000010
  0Cu  1f-1      -0.000000  0.000000 -0.000002 -0.000003  0.000000  0.000008
  0Cu  1f+2       0.000010 -0.000027 -0.000000 -0.000000 -0.000000  0.000000
  0Cu  1f-2       0.000000 -0.000001  0.000000 -0.000000  0.000000  0.000000
  0Cu  1f+3       0.000000 -0.000000  0.000001 -0.000001 -0.000000  0.000016
  0Cu  1f-3       0.000000 -0.000000  0.000001  0.000001  0.000000 -0.000011
  1N   1s         0.000014 -0.000041  0.000019  0.000029  0.000003  0.583413
  1N   2s         0.000265 -0.000851  0.000512  0.000811 -0.000044 -0.028030
  1N   3s        -0.001023  0.003393 -0.002207 -0.003498  0.000289  0.013129
  1N   1pz       -0.000008  0.000022 -0.000015 -0.000024 -0.000081 -0.000212
  1N   1px       -0.000001  0.000002  0.000089 -0.000059 -0.000000 -0.000045
  1N   1py        0.000042 -0.000113  0.000047  0.000070  0.000008  0.001174
  1N   2pz       -0.000033  0.000116 -0.000154 -0.000244 -0.000846  0.000645
  1N   2px       -0.000007  0.000023  0.001394 -0.000939  0.000004 -0.000047
  1N   2py        0.000367 -0.001152  0.001328  0.002040 -0.000240 -0.002231
  1N   1dz2       0.000019 -0.000061  0.000063  0.000100 -0.000053 -0.000367
  1N   1dxz      -0.000000  0.000001 -0.000076  0.000046  0.000000  0.000025
  1N   1dyz       0.000020 -0.000062  0.000045  0.000074 -0.000013 -0.000165
  1N   1dx2y2     0.000032 -0.000104  0.000099  0.000151  0.000007 -0.000676
  1N   1dxy       0.000001 -0.000004 -0.000054  0.000042  0.000000 -0.000066
  2N   1s         0.000014 -0.000041  0.000029 -0.000019 -0.000003 -0.612994
  2N   2s         0.000265 -0.000851  0.000810 -0.000513  0.000044  0.029460
  2N   3s        -0.001023  0.003393 -0.003496  0.002210 -0.000289 -0.013881
  2N   1pz        0.000008 -0.000022  0.000024 -0.000015 -0.000081 -0.000222
  2N   1px       -0.000042  0.000113 -0.000070  0.000047  0.000008  0.001236
  2N   1py       -0.000001  0.000002 -0.000058 -0.000089  0.000000  0.000007
  2N   2pz        0.000033 -0.000116  0.000243 -0.000154 -0.000846  0.000674
  2N   2px       -0.000367  0.001152 -0.002040  0.001328 -0.000239 -0.002382
  2N   2py       -0.000007  0.000022 -0.000936 -0.001396 -0.000006 -0.000120
  2N   1dz2       0.000019 -0.000061  0.000100 -0.000063  0.000053  0.000388
  2N   1dxz       0.000020 -0.000062  0.000074 -0.000045  0.000013  0.000177
  2N   1dyz       0.000000 -0.000001 -0.000046 -0.000076  0.000000 -0.000014
  2N   1dx2y2    -0.000032  0.000104 -0.000152  0.000099  0.000007 -0.000715
  2N   1dxy      -0.000001  0.000004 -0.000042 -0.000054  0.000000  0.000004
  3N   1s         0.000014 -0.000041 -0.000019 -0.000029  0.000003  0.369617
  3N   2s         0.000265 -0.000851 -0.000512 -0.000811 -0.000044 -0.017670
  3N   3s        -0.001023  0.003391  0.002208  0.003496  0.000290  0.007697
  3N   1pz       -0.000008  0.000022  0.000015  0.000024 -0.000081 -0.000146
  3N   1px        0.000001 -0.000002  0.000089 -0.000058  0.000000 -0.000007
  3N   1py       -0.000042  0.000113  0.000047  0.000071 -0.000008 -0.000748
  3N   2pz       -0.000033  0.000116  0.000155  0.000243 -0.000847  0.000369
  3N   2px        0.000007 -0.000022  0.001394 -0.000937 -0.000006 -0.000107
  3N   2py       -0.000367  0.001152  0.001328  0.002040  0.000242  0.001025
  3N   1dz2       0.000019 -0.000061 -0.000063 -0.000100 -0.000053 -0.000219
  3N   1dxz       0.000000 -0.000001 -0.000076  0.000046 -0.000000  0.000020
  3N   1dyz      -0.000020  0.000062  0.000044  0.000074  0.000014  0.000088
  3N   1dx2y2     0.000032 -0.000104 -0.000099 -0.000151  0.000006 -0.000409
  3N   1dxy       0.000001 -0.000004  0.000054 -0.000042  0.000000  0.000022
  4N   1s         0.000014 -0.000041 -0.000029  0.000019 -0.000003 -0.350807
  4N   2s         0.000265 -0.000851 -0.000811  0.000512  0.000044  0.016756
  4N   3s        -0.001022  0.003391  0.003496 -0.002208 -0.000290 -0.007221
  4N   1pz        0.000008 -0.000022 -0.000024  0.000015 -0.000081 -0.000141
  4N   1px        0.000042 -0.000113 -0.000071  0.000047 -0.000008 -0.000711
  4N   1py        0.000001 -0.000002 -0.000058 -0.000089 -0.000000 -0.000032
  4N   2pz        0.000033 -0.000116 -0.000244  0.000153 -0.000847  0.000336
  4N   2px        0.000367 -0.001152 -0.002040  0.001328  0.000241  0.000911
  4N   2py        0.000007 -0.000023 -0.000937 -0.001394  0.000004 -0.000053
  4N   1dz2       0.000019 -0.000061 -0.000099  0.000063  0.000053  0.000206
  4N   1dxz      -0.000020  0.000062  0.000074 -0.000045 -0.000014 -0.000081
  4N   1dyz      -0.000000  0.000001 -0.000046 -0.000076 -0.000000 -0.000020
  4N   1dx2y2    -0.000032  0.000104  0.000152 -0.000099  0.000007 -0.000382
  4N   1dxy      -0.000001  0.000004  0.000042  0.000054  0.000000 -0.000046
  5H   1s         0.000054 -0.000191  0.000175  0.000277  0.000386  0.001734
  5H   2s         0.000106 -0.000371 -0.000261 -0.000413 -0.000117 -0.001908
  5H   1pz        0.000006 -0.000008  0.000064  0.000102 -0.000022 -0.001995
  5H   1px        0.000001 -0.000002 -0.000209  0.000134  0.000000  0.000049
  5H   1py       -0.000030  0.000086 -0.000042 -0.000057 -0.000017 -0.000749
  6H   1s         0.000061 -0.000202  0.000588 -0.000038 -0.000260  0.001778
  6H   2s         0.000168 -0.000562  0.000242 -0.000065  0.000078 -0.001357
  6H   1pz        0.000013 -0.000044  0.000161 -0.000069  0.000105  0.001159
  6H   1px        0.000012 -0.000043 -0.000013 -0.000020 -0.000084  0.001901
  6H   1py       -0.000040  0.000112 -0.000099 -0.000156  0.000019 -0.000302
  7H   1s         0.000061 -0.000203 -0.000288  0.000516 -0.000259  0.001922
  7H   2s         0.000168 -0.000563 -0.000162  0.000192  0.000078 -0.001348
  7H   1pz        0.000013 -0.000044 -0.000131  0.000116  0.000105  0.001189
  7H   1px       -0.000011  0.000038  0.000017  0.000026  0.000083 -0.001902
  7H   1py       -0.000040  0.000114 -0.000098 -0.000156  0.000022 -0.000412
  8H   1s         0.000054 -0.000191  0.000276 -0.000175 -0.000386 -0.001821
  8H   2s         0.000106 -0.000370 -0.000414  0.000261  0.000117  0.001986
  8H   1pz       -0.000006  0.000008 -0.000102  0.000064 -0.000022 -0.002098
  8H   1px        0.000030 -0.000086  0.000057 -0.000042 -0.000017 -0.000793
  8H   1py        0.000001 -0.000002  0.000133  0.000209 -0.000000  0.000011
  9H   1s         0.000060 -0.000202  0.000515  0.000288  0.000260 -0.001884
  9H   2s         0.000168 -0.000563  0.000191  0.000163 -0.000078  0.001444
  9H   1pz       -0.000013  0.000044 -0.000116 -0.000132  0.000105  0.001219
  9H   1px        0.000040 -0.000114  0.000156 -0.000098  0.000022 -0.000396
  9H   1py       -0.000011  0.000038  0.000027 -0.000016 -0.000083  0.001982
 10H   1s         0.000061 -0.000203 -0.000038 -0.000590  0.000259 -0.002000
 10H   2s         0.000168 -0.000563 -0.000064 -0.000242 -0.000078  0.001436
 10H   1pz       -0.000013  0.000044  0.000069  0.000162  0.000105  0.001244
 10H   1px        0.000040 -0.000112  0.000156 -0.000099  0.000019 -0.000346
 10H   1py        0.000012 -0.000043 -0.000020  0.000013  0.000084 -0.002010
 11H   1s         0.000054 -0.000190 -0.000176 -0.000276  0.000386  0.001128
 11H   2s         0.000106 -0.000371  0.000259  0.000413 -0.000116 -0.001368
 11H   1pz        0.000006 -0.000008 -0.000064 -0.000102 -0.000022 -0.001240
 11H   1px       -0.000001  0.000002 -0.000209  0.000133 -0.000001  0.000021
 11H   1py        0.000030 -0.000087 -0.000043 -0.000058  0.000017  0.000461
 12H   1s         0.000061 -0.000202  0.000288 -0.000515 -0.000260  0.001107
 12H   2s         0.000168 -0.000563  0.000163 -0.000192  0.000077 -0.000795
 12H   1pz        0.000013 -0.000044  0.000131 -0.000116  0.000105  0.000741
 12H   1px        0.000011 -0.000038  0.000017  0.000027 -0.000083  0.001196
 12H   1py        0.000040 -0.000114 -0.000098 -0.000156 -0.000023  0.000265
 13H   1s         0.000061 -0.000203 -0.000588  0.000037 -0.000260  0.001249
 13H   2s         0.000167 -0.000561 -0.000241  0.000064  0.000079 -0.000788
 13H   1pz        0.000013 -0.000044 -0.000162  0.000069  0.000105  0.000777
 13H   1px       -0.000012  0.000043 -0.000013 -0.000020  0.000084 -0.001218
 13H   1py        0.000040 -0.000112 -0.000098 -0.000156 -0.000019  0.000250
 14H   1s         0.000054 -0.000190 -0.000277  0.000174 -0.000386 -0.001078
 14H   2s         0.000106 -0.000371  0.000411 -0.000261  0.000116  0.001324
 14H   1pz       -0.000006  0.000008  0.000101 -0.000065 -0.000022 -0.001173
 14H   1px       -0.000030  0.000087  0.000058 -0.000042  0.000017  0.000436
 14H   1py       -0.000001  0.000002  0.000134  0.000209  0.000000  0.000034
 15H   1s         0.000061 -0.000202  0.000038  0.000589  0.000260 -0.001061
 15H   2s         0.000168 -0.000562  0.000065  0.000242 -0.000077  0.000754
 15H   1pz       -0.000013  0.000044 -0.000069 -0.000161  0.000105  0.000708
 15H   1px       -0.000040  0.000112  0.000156 -0.000100 -0.000019  0.000214
 15H   1py       -0.000012  0.000043 -0.000021  0.000013 -0.000084  0.001143
 16H   1s         0.000061 -0.000202 -0.000515 -0.000286  0.000260 -0.001177
 16H   2s         0.000168 -0.000562 -0.000191 -0.000162 -0.000079  0.000749
 16H   1pz       -0.000013  0.000044  0.000116  0.000132  0.000105  0.000737
 16H   1px       -0.000040  0.000114  0.000155 -0.000098 -0.000022  0.000286
 16H   1py        0.000011 -0.000038  0.000027 -0.000017  0.000083 -0.001143
                      6         7         8         9        10        11   
                 -14.36747 -14.36746 -14.36743  -4.53451  -3.07930  -3.07929
                   1.00000   1.00000   1.00000   1.00000   1.00000   1.00000
                  --------  --------  --------  --------  --------  --------
  0Cu  1s        -0.000001  0.000000  0.000038  0.128616  0.000000 -0.000000
  0Cu  2s         0.000002 -0.000001 -0.000056 -0.469844 -0.000001  0.000001
  0Cu  3s        -0.000027  0.000009  0.000697  1.089364  0.000003 -0.000001
  0Cu  4s         0.000447 -0.000140 -0.011081 -0.005256 -0.000006  0.000002
  0Cu  5s        -0.000208  0.000065  0.005170  0.002078 -0.000001  0.000000
  0Cu  1pz        0.000001  0.000003 -0.000000 -0.000001 -0.000054 -0.000102
  0Cu  1px       -0.000038 -0.000017 -0.000001 -0.000001  0.377391  0.147035
  0Cu  1py        0.000018 -0.000038  0.000001  0.000001 -0.147035  0.377390
  0Cu  2pz       -0.000003 -0.000007  0.000000  0.000002  0.000143  0.000272
  0Cu  2px        0.000154  0.000069  0.000006  0.000003 -1.002145 -0.390444
  0Cu  2py       -0.000073  0.000153 -0.000005 -0.000003  0.390444 -1.002144
  0Cu  1dz2       0.000002 -0.000001 -0.000045 -0.006540  0.000001 -0.000000
  0Cu  1dxz       0.000048  0.000024  0.000002 -0.000002 -0.000151 -0.000066
  0Cu  1dyz       0.000025 -0.000048  0.000002 -0.000002 -0.000065  0.000149
  0Cu  1dx2y2    -0.000009 -0.000020  0.000000  0.000001 -0.000000 -0.000000
  0Cu  1dxy      -0.000000 -0.000001  0.000000 -0.000000  0.000002 -0.000001
  0Cu  2dz2      -0.000042  0.000013  0.001045  0.001993  0.000000 -0.000000
  0Cu  2dxz      -0.000559 -0.000276 -0.000019  0.000001  0.001561  0.000679
  0Cu  2dyz      -0.000293  0.000556 -0.000018  0.000000  0.000680 -0.001562
  0Cu  2dx2y2    -0.000123 -0.000265  0.000005 -0.000000 -0.000001 -0.000002
  0Cu  2dxy      -0.000004 -0.000011 -0.000000 -0.000000  0.000000 -0.000000
  0Cu  3pz       -0.000096 -0.000207  0.000004  0.000001 -0.000001 -0.000002
  0Cu  3px       -0.006619 -0.002943 -0.000233  0.000003  0.020528  0.007999
  0Cu  3py        0.003147 -0.006565  0.000200 -0.000002 -0.007997  0.020526
  0Cu  1f0        0.000002  0.000004 -0.000000 -0.000000 -0.000001 -0.000001
  0Cu  1f+1       0.000048  0.000021  0.000002  0.000000  0.001924  0.000749
  0Cu  1f-1      -0.000023  0.000048 -0.000001 -0.000000 -0.000750  0.001924
  0Cu  1f+2       0.000001 -0.000000 -0.000037 -0.000100  0.000001 -0.000000
  0Cu  1f-2       0.000000 -0.000000 -0.000001 -0.000004  0.000000  0.000000
  0Cu  1f+3       0.000070  0.000038  0.000002  0.000000  0.001347  0.000650
  0Cu  1f-3       0.000040 -0.000069  0.000002  0.000000  0.000650 -0.001347
  1N   1s        -0.380481  0.513880  0.476070  0.000028  0.000192 -0.000464
  1N   2s         0.018398 -0.024950 -0.022755 -0.001056 -0.000750  0.001823
  1N   3s        -0.009490  0.013435  0.012212  0.003555  0.004956 -0.012034
  1N   1pz        0.000124 -0.000154 -0.000207  0.000017 -0.000044  0.000106
  1N   1px       -0.000094 -0.000070 -0.000025  0.000002 -0.000214 -0.000070
  1N   1py       -0.000772  0.001028  0.001142 -0.000115  0.000323 -0.000795
  1N   2pz       -0.000444  0.000672 -0.000206  0.000256  0.000508 -0.001235
  1N   2px       -0.000458 -0.000135  0.000018  0.000046 -0.004566 -0.002061
  1N   2py        0.001975 -0.003114 -0.001629 -0.002291 -0.003228  0.007572
  1N   1dz2       0.000261 -0.000366 -0.000346 -0.000207 -0.000219  0.000531
  1N   1dxz       0.000106  0.000053  0.000008  0.000003  0.000181  0.000066
  1N   1dyz       0.000140 -0.000199 -0.000265 -0.000145 -0.000149  0.000370
  1N   1dx2y2     0.000478 -0.000656 -0.000552 -0.000365 -0.000405  0.000948
  1N   1dxy      -0.000166 -0.000113 -0.000028 -0.000014  0.000270  0.000154
  2N   1s        -0.590227 -0.176193  0.469764  0.000028  0.000464  0.000191
  2N   2s         0.028611  0.008596 -0.022452 -0.001056 -0.001823 -0.000753
  2N   3s        -0.015172 -0.004856  0.012065  0.003555  0.012030  0.004965
  2N   1pz       -0.000183 -0.000047  0.000204 -0.000017  0.000106  0.000044
  2N   1px        0.001187  0.000350 -0.001129  0.000115 -0.000794 -0.000323
  2N   1py        0.000079 -0.000101 -0.000020  0.000002  0.000070 -0.000214
  2N   2pz        0.000735  0.000259  0.000214 -0.000256 -0.001233 -0.000511
  2N   2px       -0.003387 -0.001232  0.001601  0.002291  0.007574  0.003229
  2N   2py        0.000145 -0.000439  0.000043  0.000043  0.002052 -0.004568
  2N   1dz2       0.000415  0.000131 -0.000342 -0.000207 -0.000531 -0.000219
  2N   1dxz       0.000224  0.000076 -0.000263 -0.000144 -0.000370 -0.000148
  2N   1dyz       0.000060 -0.000105 -0.000003 -0.000003  0.000066 -0.000181
  2N   1dx2y2    -0.000743 -0.000242  0.000545  0.000365  0.000949  0.000404
  2N   1dxy      -0.000122  0.000174  0.000016  0.000014  0.000155 -0.000269
  3N   1s         0.240365 -0.718579  0.514884  0.000028 -0.000191  0.000463
  3N   2s        -0.011683  0.034766 -0.024635 -0.001055  0.000753 -0.001826
  3N   3s         0.006272 -0.017863  0.013194  0.003550 -0.004959  0.012027
  3N   1pz       -0.000070  0.000232 -0.000220  0.000017  0.000044 -0.000106
  3N   1px       -0.000098 -0.000082  0.000022 -0.000002 -0.000214 -0.000070
  3N   1py       -0.000475  0.001436 -0.001219  0.000116  0.000322 -0.000791
  3N   2pz        0.000350 -0.000905 -0.000157  0.000254 -0.000513  0.001233
  3N   2px       -0.000447 -0.000124 -0.000050 -0.000043 -0.004563 -0.002054
  3N   2py        0.001492 -0.003812  0.001846  0.002290 -0.003229  0.007571
  3N   1dz2      -0.000171  0.000491 -0.000373 -0.000207  0.000218 -0.000531
  3N   1dxz       0.000106  0.000057 -0.000003 -0.000003  0.000181  0.000066
  3N   1dyz       0.000092 -0.000252  0.000280  0.000144 -0.000148  0.000370
  3N   1dx2y2    -0.000317  0.000888 -0.000601 -0.000365  0.000404 -0.000948
  3N   1dxy       0.000172  0.000123 -0.000018 -0.000014 -0.000269 -0.000155
  4N   1s         0.651844  0.405386  0.513370  0.000028 -0.000463 -0.000191
  4N   2s        -0.031570 -0.019584 -0.024564 -0.001055  0.001827  0.000753
  4N   3s         0.016367  0.009915  0.013169  0.003550 -0.012028 -0.004957
  4N   1pz        0.000206  0.000135  0.000219 -0.000017 -0.000106 -0.000044
  4N   1px        0.001297  0.000818  0.001216 -0.000116 -0.000791 -0.000321
  4N   1py        0.000078 -0.000093  0.000026 -0.000002  0.000070 -0.000214
  4N   2pz       -0.000853 -0.000484  0.000158 -0.000253  0.001233  0.000506
  4N   2px       -0.003593 -0.002016 -0.001847 -0.002289  0.007573  0.003228
  4N   2py        0.000138 -0.000456 -0.000023 -0.000046  0.002055 -0.004561
  4N   1dz2      -0.000449 -0.000273 -0.000372 -0.000207  0.000531  0.000219
  4N   1dxz       0.000230  0.000141  0.000280  0.000144 -0.000369 -0.000149
  4N   1dyz       0.000057 -0.000105  0.000007  0.000003  0.000066 -0.000181
  4N   1dx2y2     0.000812  0.000503  0.000599  0.000365 -0.000948 -0.000404
  4N   1dxy       0.000123 -0.000164  0.000029  0.000014 -0.000155  0.000269
  5H   1s        -0.001103  0.001447  0.001680 -0.000120 -0.000417  0.001015
  5H   2s         0.001018 -0.001201 -0.001499 -0.000150  0.000486 -0.001177
  5H   1pz        0.001334 -0.001828 -0.001619 -0.000145 -0.000141  0.000341
  5H   1px        0.000148  0.000088  0.000023 -0.000006  0.000576  0.000248
  5H   1py        0.000526 -0.000713 -0.000867  0.000277  0.000188 -0.000423
  6H   1s        -0.001537  0.001449  0.001445 -0.000158 -0.001625  0.000161
  6H   2s         0.001004 -0.001410 -0.002135 -0.000395 -0.000937 -0.000205
  6H   1pz       -0.000824  0.000954  0.000906 -0.000026 -0.000432 -0.000100
  6H   1px       -0.001265  0.001654  0.001355  0.000044  0.000040 -0.000131
  6H   1py        0.000247 -0.000146 -0.000263  0.000340  0.000325 -0.000572
  7H   1s        -0.000852  0.001768  0.001468 -0.000159  0.001041  0.001263
  7H   2s         0.001030 -0.001396 -0.002134 -0.000396  0.000810  0.000519
  7H   1pz       -0.000662  0.001025  0.000908 -0.000026  0.000376  0.000234
  7H   1px        0.001196 -0.001676 -0.001347 -0.000057 -0.000072  0.000145
  7H   1py        0.000126 -0.000289 -0.000321  0.000339  0.000170 -0.000630
  8H   1s        -0.001683 -0.000480  0.001662 -0.000120 -0.001013 -0.000420
  8H   2s         0.001455  0.000342 -0.001479 -0.000150  0.001177  0.000484
  8H   1pz       -0.002088 -0.000637  0.001598  0.000145  0.000342  0.000140
  8H   1px       -0.000817 -0.000251  0.000858 -0.000277 -0.000423 -0.000188
  8H   1py       -0.000096  0.000152  0.000013 -0.000005 -0.000247  0.000577
  9H   1s        -0.002022 -0.000210  0.001427 -0.000158 -0.001259  0.001040
  9H   2s         0.001599  0.000507 -0.002119 -0.000395 -0.000515  0.000810
  9H   1pz        0.001184  0.000255 -0.000893  0.000026  0.000233 -0.000377
  9H   1px       -0.000346  0.000013  0.000313 -0.000338 -0.000630 -0.000170
  9H   1py        0.001918  0.000542 -0.001324 -0.000058 -0.000146 -0.000071
 10H   1s        -0.001677 -0.000888  0.001447 -0.000160 -0.000164 -0.001629
 10H   2s         0.001613  0.000479 -0.002119 -0.000397  0.000203 -0.000939
 10H   1pz        0.001101  0.000412 -0.000895  0.000026 -0.000099  0.000432
 10H   1px       -0.000185 -0.000131  0.000264 -0.000341 -0.000572 -0.000324
 10H   1py       -0.001898 -0.000608  0.001338  0.000044  0.000131  0.000038
 11H   1s         0.000664 -0.002058  0.001791 -0.000118  0.000422 -0.001011
 11H   2s        -0.000548  0.001909 -0.001596 -0.000149 -0.000480  0.001176
 11H   1pz       -0.000858  0.002522 -0.001756 -0.000145  0.000139 -0.000343
 11H   1px        0.000150  0.000100 -0.000017  0.000005  0.000576  0.000246
 11H   1py        0.000328 -0.000968  0.000921 -0.000276  0.000190 -0.000424
 12H   1s         0.000413 -0.002422  0.001567 -0.000158 -0.001041 -0.001260
 12H   2s        -0.000630  0.001832 -0.002236 -0.000395 -0.000812 -0.000517
 12H   1pz        0.000384 -0.001443  0.000979 -0.000026 -0.000376 -0.000233
 12H   1px        0.000756 -0.002346  0.001471  0.000057 -0.000072  0.000146
 12H   1py        0.000029 -0.000437  0.000337 -0.000338  0.000170 -0.000631
 13H   1s         0.001095 -0.002097  0.001589 -0.000161  0.001625 -0.000165
 13H   2s        -0.000601  0.001846 -0.002235 -0.000397  0.000936  0.000203
 13H   1pz        0.000545 -0.001372  0.000987 -0.000026  0.000432  0.000100
 13H   1px       -0.000822  0.002327 -0.001483 -0.000043  0.000040 -0.000131
 13H   1py        0.000165 -0.000260  0.000281 -0.000341  0.000322 -0.000573
 14H   1s         0.001851  0.001174  0.001786 -0.000118  0.001013  0.000414
 14H   2s        -0.001678 -0.001126 -0.001589 -0.000149 -0.001172 -0.000487
 14H   1pz        0.002296  0.001415  0.001751  0.000145 -0.000341 -0.000142
 14H   1px       -0.000877 -0.000550 -0.000919  0.000276 -0.000425 -0.000188
 14H   1py       -0.000092  0.000149 -0.000020  0.000006 -0.000248  0.000576
 15H   1s         0.001880  0.001616  0.001564 -0.000158  0.000162  0.001626
 15H   2s        -0.001668 -0.001022 -0.002233 -0.000396 -0.000205  0.000938
 15H   1pz       -0.001232 -0.000876 -0.000977  0.000026  0.000100 -0.000431
 15H   1px       -0.000224 -0.000265 -0.000278  0.000340 -0.000573 -0.000325
 15H   1py       -0.002115 -0.001353 -0.001478 -0.000044  0.000132  0.000039
 16H   1s         0.002218  0.000935  0.001583 -0.000160  0.001262 -0.001037
 16H   2s        -0.001653 -0.001052 -0.002233 -0.000396  0.000516 -0.000808
 16H   1pz       -0.001314 -0.000719 -0.000983  0.000026 -0.000233  0.000377
 16H   1px       -0.000387 -0.000147 -0.000338  0.000339 -0.000629 -0.000172
 16H   1py        0.002133  0.001281  0.001467  0.000057 -0.000146 -0.000071
                     12        13        14        15        16        17   
                  -3.04471  -1.14315  -1.13537  -1.13537  -1.13046  -0.78966
                   1.00000   1.00000   1.00000   1.00000   1.00000   1.00000
                  --------  --------  --------  --------  --------  --------
  0Cu  1s        -0.000000 -0.004282 -0.000001 -0.000000 -0.000000  0.000005
  0Cu  2s         0.000001  0.012798  0.000003  0.000000  0.000000 -0.000014
  0Cu  3s        -0.000003 -0.051602 -0.000012 -0.000000 -0.000000  0.000062
  0Cu  4s         0.000001  0.078435  0.000021  0.000000  0.000001 -0.000131
  0Cu  5s         0.000001 -0.025476 -0.000004 -0.000000 -0.000001  0.000058
  0Cu  1pz       -0.404277 -0.000001 -0.000000 -0.000003  0.002458  0.000003
  0Cu  1px       -0.000088 -0.000006 -0.007344  0.008712  0.000003 -0.000010
  0Cu  1py       -0.000076  0.000005  0.008713  0.007344  0.000003  0.000009
  0Cu  2pz        1.073588  0.000004  0.000000  0.000010 -0.007309 -0.000009
  0Cu  2px        0.000233  0.000016  0.021961 -0.026050 -0.000009  0.000029
  0Cu  2py        0.000201 -0.000014 -0.026052 -0.021960 -0.000008 -0.000028
  0Cu  1dz2       0.000001 -0.018187 -0.000006 -0.000000 -0.000001  0.000029
  0Cu  1dxz       0.000001 -0.000005 -0.004586  0.005894  0.000003  0.000177
  0Cu  1dyz      -0.000001 -0.000004 -0.005899 -0.004591 -0.000004  0.000183
  0Cu  1dx2y2    -0.000022 -0.000001 -0.000006 -0.000063  0.038151 -0.004493
  0Cu  1dxy      -0.000001 -0.000004  0.000009 -0.000004  0.001493  0.116079
  0Cu  2dz2      -0.000000 -0.015288 -0.000006 -0.000000 -0.000001  0.000014
  0Cu  2dxz       0.000000 -0.000002 -0.004190  0.005388  0.000006  0.000092
  0Cu  2dyz      -0.000000 -0.000002 -0.005392 -0.004196 -0.000006  0.000095
  0Cu  2dx2y2    -0.000597 -0.000000 -0.000005 -0.000046  0.027093 -0.002159
  0Cu  2dxy      -0.000023 -0.000003  0.000015 -0.000004  0.001062  0.055783
  0Cu  3pz       -0.004557 -0.000004  0.000000 -0.000008  0.007758  0.000017
  0Cu  3px       -0.000005 -0.000013 -0.029553  0.035067  0.000008 -0.000067
  0Cu  3py       -0.000005  0.000010  0.035062  0.029558  0.000007  0.000064
  0Cu  1f0       -0.002026  0.000000  0.000000  0.000000 -0.000273 -0.000000
  0Cu  1f+1      -0.000001  0.000000  0.000282 -0.000334 -0.000000  0.000001
  0Cu  1f-1      -0.000001 -0.000000 -0.000334 -0.000282 -0.000000 -0.000001
  0Cu  1f+2       0.000000  0.000359  0.000000 -0.000000 -0.000000 -0.000000
  0Cu  1f-2      -0.000000  0.000014 -0.000000 -0.000000 -0.000000 -0.000000
  0Cu  1f+3       0.000000  0.000001  0.000377 -0.000526 -0.000000  0.000000
  0Cu  1f-3      -0.000000  0.000001  0.000526  0.000378  0.000000  0.000001
  1N   1s        -0.000106  0.133083  0.147621  0.119753 -0.135038 -0.000035
  1N   2s        -0.000006  0.269882  0.300355  0.243655 -0.274699 -0.000075
  1N   3s        -0.000915  0.089074  0.100843  0.081807 -0.100232 -0.000074
  1N   1pz        0.000139  0.005294  0.007143  0.005795 -0.007107 -0.000976
[...]
14 H  px              0.0       0.7       0.3       0.9       0.8       0.5
15 H  s               2.1       1.9       0.2       0.6       0.8       0.6
15 H  pz              0.7       0.6       0.1       0.1       0.2       0.2
15 H  px              0.3       0.2       0.0       0.0       0.1       0.0
15 H  py              1.7       1.5       0.2       0.5       0.6       0.3
16 H  s               2.0       0.1       2.2       0.6       0.8       2.9
16 H  pz              0.6       0.0       0.7       0.2       0.2       0.9
16 H  px              0.3       0.0       0.3       0.1       0.1       0.3
16 H  py              1.6       0.0       1.7       0.5       0.6       2.0

                    138       139       140       141       142       143   
                   2.91557   2.96241   5.25729   5.26369   5.26369   5.27595
                   0.00000   0.00000   0.00000   0.00000   0.00000   0.00000
                  --------  --------  --------  --------  --------  --------
 0 Cu f0              0.0       0.0       0.0       0.0       0.0      99.9
 0 Cu f+1             0.0       0.0       0.0      34.6      18.4       0.0
 0 Cu f-1             0.0       0.0       0.0      18.4      34.6       0.0
 0 Cu f+2             0.0       0.0       0.2       0.0       0.0       0.0
 0 Cu f-2             0.0       0.0      99.8       0.0       0.0       0.0
 0 Cu f+3             0.0       0.0       0.0      27.1      19.8       0.0
 0 Cu f-3             0.0       0.0       0.0      19.8      27.1       0.0
 1 N  pz              0.8       0.0       0.0       0.0       0.0       0.0
 1 N  px              1.7       2.9       0.0       0.0       0.0       0.0
 1 N  dz2             0.9       0.0       0.0       0.0       0.0       0.0
 1 N  dxz             6.3       8.2       0.0       0.0       0.0       0.0
 1 N  dyz             2.6       0.0       0.0       0.0       0.0       0.0
 1 N  dx2y2           0.6       0.0       0.0       0.0       0.0       0.0
 1 N  dxy             3.3       4.8       0.0       0.0       0.0       0.0
 2 N  pz              0.9       0.0       0.0       0.0       0.0       0.0
 2 N  py              1.5       2.9       0.0       0.0       0.0       0.0
 2 N  dz2             1.0       0.0       0.0       0.0       0.0       0.0
 2 N  dxz             2.6       0.0       0.0       0.0       0.0       0.0
 2 N  dyz             5.9       8.2       0.0       0.0       0.0       0.0
 2 N  dx2y2           1.0       0.0       0.0       0.0       0.0       0.0
 2 N  dxy             2.7       4.8       0.0       0.0       0.0       0.0
 3 N  pz              0.8       0.0       0.0       0.0       0.0       0.0
 3 N  px              1.7       2.9       0.0       0.0       0.0       0.0
 3 N  dz2             0.9       0.0       0.0       0.0       0.0       0.0
 3 N  dxz             6.3       8.2       0.0       0.0       0.0       0.0
 3 N  dyz             2.5       0.0       0.0       0.0       0.0       0.0
 3 N  dx2y2           0.6       0.0       0.0       0.0       0.0       0.0
 3 N  dxy             3.2       4.8       0.0       0.0       0.0       0.0
 4 N  pz              0.9       0.0       0.0       0.0       0.0       0.0
 4 N  py              1.5       2.9       0.0       0.0       0.0       0.0
 4 N  dz2             1.0       0.0       0.0       0.0       0.0       0.0
 4 N  dxz             2.5       0.0       0.0       0.0       0.0       0.0
 4 N  dyz             5.9       8.2       0.0       0.0       0.0       0.0
 4 N  dx2y2           0.9       0.0       0.0       0.0       0.0       0.0
 4 N  dxy             2.7       4.8       0.0       0.0       0.0       0.0
 5 H  s               1.0       0.0       0.0       0.0       0.0       0.0
 5 H  pz              0.7       0.0       0.0       0.0       0.0       0.0
 5 H  px              0.0       0.1       0.0       0.0       0.0       0.0
 5 H  py              0.5       0.0       0.0       0.0       0.0       0.0
 6 H  s               0.6       2.4       0.0       0.0       0.0       0.0
 6 H  pz              0.2       0.7       0.0       0.0       0.0       0.0
 6 H  px              0.3       1.2       0.0       0.0       0.0       0.0
 6 H  py              0.0       0.1       0.0       0.0       0.0       0.0
 7 H  s               2.9       2.4       0.0       0.0       0.0       0.0
 7 H  pz              0.9       0.7       0.0       0.0       0.0       0.0
 7 H  px              2.0       1.2       0.0       0.0       0.0       0.0
 7 H  py              0.3       0.1       0.0       0.0       0.0       0.0
 8 H  s               1.1       0.0       0.0       0.0       0.0       0.0
 8 H  pz              0.8       0.0       0.0       0.0       0.0       0.0
 8 H  px              0.5       0.0       0.0       0.0       0.0       0.0
 8 H  py              0.0       0.1       0.0       0.0       0.0       0.0
 9 H  s               0.5       2.4       0.0       0.0       0.0       0.0
 9 H  pz              0.1       0.7       0.0       0.0       0.0       0.0
 9 H  px              0.0       0.1       0.0       0.0       0.0       0.0
 9 H  py              0.2       1.2       0.0       0.0       0.0       0.0
10 H  s               2.8       2.4       0.0       0.0       0.0       0.0
10 H  pz              0.9       0.7       0.0       0.0       0.0       0.0
10 H  px              0.2       0.1       0.0       0.0       0.0       0.0
10 H  py              2.0       1.2       0.0       0.0       0.0       0.0
11 H  s               0.9       0.0       0.0       0.0       0.0       0.0
11 H  pz              0.7       0.0       0.0       0.0       0.0       0.0
11 H  px              0.0       0.1       0.0       0.0       0.0       0.0
11 H  py              0.4       0.0       0.0       0.0       0.0       0.0
12 H  s               2.9       2.4       0.0       0.0       0.0       0.0
12 H  pz              0.9       0.7       0.0       0.0       0.0       0.0
12 H  px              2.0       1.2       0.0       0.0       0.0       0.0
12 H  py              0.3       0.1       0.0       0.0       0.0       0.0
13 H  s               0.6       2.4       0.0       0.0       0.0       0.0
13 H  pz              0.2       0.7       0.0       0.0       0.0       0.0
13 H  px              0.3       1.2       0.0       0.0       0.0       0.0
13 H  py              0.0       0.1       0.0       0.0       0.0       0.0
14 H  s               1.0       0.0       0.0       0.0       0.0       0.0
14 H  pz              0.8       0.0       0.0       0.0       0.0       0.0
14 H  px              0.5       0.0       0.0       0.0       0.0       0.0
14 H  py              0.0       0.1       0.0       0.0       0.0       0.0
15 H  s               2.7       2.4       0.0       0.0       0.0       0.0
15 H  pz              0.9       0.7       0.0       0.0       0.0       0.0
15 H  px              0.2       0.1       0.0       0.0       0.0       0.0
15 H  py              1.9       1.3       0.0       0.0       0.0       0.0
16 H  s               0.5       2.4       0.0       0.0       0.0       0.0
16 H  pz              0.1       0.7       0.0       0.0       0.0       0.0
16 H  px              0.0       0.1       0.0       0.0       0.0       0.0
16 H  py              0.2       1.2       0.0       0.0       0.0       0.0

                    144       145       146   
                   5.28034   5.29550   5.29551
                   0.00000   0.00000   0.00000
                  --------  --------  --------
 0 Cu f+1             0.0      18.0      28.8
 0 Cu f-1             0.0      28.8      18.0
 0 Cu f+2            99.6       0.0       0.0
 0 Cu f-2             0.2       0.0       0.0
 0 Cu f+3             0.0      16.3      36.3
 0 Cu f-3             0.0      36.3      16.3


                      *****************************
                      * MAYER POPULATION ANALYSIS *
                      *****************************

  NA   - Mulliken gross atomic population
  ZA   - Total nuclear charge
  QA   - Mulliken gross atomic charge
  VA   - Mayer's total valence
  BVA  - Mayer's bonded valence
  FA   - Mayer's free valence

  ATOM       NA         ZA         QA         VA         BVA        FA
  0 Cu    28.5485    29.0000     0.4515     2.6972     2.3879     0.3092
  1 N      7.1797     7.0000    -0.1797     3.4907     3.4781     0.0126
  2 N      7.1797     7.0000    -0.1797     3.4907     3.4781     0.0126
  3 N      7.1798     7.0000    -0.1798     3.4905     3.4779     0.0126
  4 N      7.1799     7.0000    -0.1799     3.4905     3.4779     0.0126
  5 H      0.8078     1.0000     0.1922     0.9728     0.9728     0.0000
  6 H      0.8126     1.0000     0.1874     0.9779     0.9779     0.0000
  7 H      0.8127     1.0000     0.1873     0.9779     0.9779     0.0000
  8 H      0.8078     1.0000     0.1922     0.9728     0.9728     0.0000
  9 H      0.8126     1.0000     0.1874     0.9779     0.9779     0.0000
 10 H      0.8127     1.0000     0.1873     0.9779     0.9779     0.0000
 11 H      0.8078     1.0000     0.1922     0.9729     0.9728     0.0000
 12 H      0.8126     1.0000     0.1874     0.9779     0.9779     0.0000
 13 H      0.8127     1.0000     0.1873     0.9779     0.9779     0.0000
 14 H      0.8078     1.0000     0.1922     0.9729     0.9728     0.0000
 15 H      0.8126     1.0000     0.1874     0.9779     0.9779     0.0000
 16 H      0.8127     1.0000     0.1873     0.9779     0.9779     0.0000

  Mayer bond orders larger than 0.100000
B(  0-Cu,  1-N ) :   0.5748 B(  0-Cu,  2-N ) :   0.5748 B(  0-Cu,  3-N ) :   0.5745 
B(  0-Cu,  4-N ) :   0.5745 B(  1-N ,  5-H ) :   0.9507 B(  1-N ,  6-H ) :   0.9515 
B(  1-N ,  7-H ) :   0.9515 B(  2-N ,  8-H ) :   0.9507 B(  2-N ,  9-H ) :   0.9515 
B(  2-N , 10-H ) :   0.9515 B(  3-N , 11-H ) :   0.9507 B(  3-N , 12-H ) :   0.9515 
B(  3-N , 13-H ) :   0.9515 B(  4-N , 14-H ) :   0.9507 B(  4-N , 15-H ) :   0.9515 
B(  4-N , 16-H ) :   0.9515 

-------
TIMINGS
-------

Total SCF time: 0 days 0 hours 0 min 10 sec 

Total time                  ....      10.030 sec
Sum of individual times     ....       9.741 sec  ( 97.1%)

SCF preparation             ....       0.225 sec  (  2.2%)
Fock matrix formation       ....       8.608 sec  ( 85.8%)
  Startup                   ....       0.086 sec  (  1.0% of F)
  Split-RI-J                ....       2.057 sec  ( 23.9% of F)
  XC integration            ....       6.415 sec  ( 74.5% of F)
    Basis function eval.    ....       1.884 sec  ( 29.4% of XC)
    Density eval.           ....       1.469 sec  ( 22.9% of XC)
    XC-Functional eval.     ....       0.307 sec  (  4.8% of XC)
    XC-Potential eval.      ....       2.410 sec  ( 37.6% of XC)
Diagonalization             ....       0.000 sec  (  0.0%)
Density matrix formation    ....       0.187 sec  (  1.9%)
Total Energy calculation    ....       0.137 sec  (  1.4%)
Population analysis         ....       0.288 sec  (  2.9%)
Orbital Transformation      ....       0.044 sec  (  0.4%)
Orbital Orthonormalization  ....       0.000 sec  (  0.0%)
DIIS solution               ....       0.067 sec  (  0.7%)
  MO trafo                  ....       0.000 sec  (  0.0 % of DIIS)
  Orb grad                  ....       0.000 sec  (  0.0 % of DIIS)
  Energy W gradient         ....       0.000 sec  (  0.0 % of DIIS)
  DIIS error                ....       0.003 sec  (  4.5 % of DIIS)
  DIIS work                 ....       0.064 sec  ( 95.5 % of DIIS)
  Form Q                    ....       0.000 sec  (  0.0 % of DIIS)
  Form QpQm                 ....       0.000 sec  (  0.0 % of DIIS)
  Exp/Cayley                ....       0.000 sec  (  0.0 % of DIIS)
  Orb update                ....       0.000 sec  (  0.0 % of DIIS)
  Wake-sleep                ....       0.000 sec  (  0.0 % of DIIS)
SOSCF solution              ....       0.185 sec  (  1.8%)
  MO trafo                  ....       0.060 sec  ( 32.4 % of SOSCF)
  Orb grad                  ....       0.045 sec  ( 24.3 % of SOSCF)
  Rot update                ....       0.030 sec  ( 16.2 % of SOSCF)
  Step                      ....       0.025 sec  ( 13.5 % of SOSCF)
Finished LeanSCF after  10.2 sec

Maximum memory used throughout the entire LEANSCF-calculation: 16.8 MB

-------------------------   --------------------
FINAL SINGLE POINT ENERGY     -1865.329715655817
-------------------------   --------------------

                                *** OPTIMIZATION RUN DONE ***


------------------------------------------------------------------------------
                              ORCA PROPERTY CALCULATIONS
------------------------------------------------------------------------------

GBWName                                 ... file_input.gbw
Number of atoms                         ...     17
Number of basis functions               ...    147
Max core memory                         ...   1024 MB

Electric properties:
Dipole moment                           ... YES
Quadrupole moment                       ...  NO
Static polarizability (Dipole/Dipole)   ...  NO
Static polarizability (Dipole/Quad.)    ...  NO
Static polarizability (Quad./Quad.)     ...  NO
Static polarizability (Velocity)        ...  NO

Atomic electric properties:
Dipole moment                           ...  NO
Quadrupole moment                       ...  NO
Static polarizability                   ...  NO

Choice of electric origin               ... Center of mass
Position of electric origin             ...    -0.386334     0.816405     0.000133

General magnetic properties:
Magnetizability                         ...  NO

EPR properties:
g-Tensor (aka g-matrix)                 ...  NO
Zero-Field splitting spin-orbit         ...  NO
Zero-field splitting spin-spin          ...  NO
Hyperfine couplings                     ...  NO (   0 nuclei)
Quadrupole couplings                    ...  NO (   0 nuclei)
Contact density                         ...  NO (   0 nuclei)

NMR properties:
Chemical shifts                         ...  NO (   0 nuclei)
Spin-rotation constants                 ...  NO (   0 nuclei)
Spin-spin couplings                     ...  NO (   0 nuclei,    0 pairs)

Choice of magnetic origin               ... GIAO
Position of magnetic origin             ...     0.000000     0.000000     0.000000

Properties with geometric perturbations:
SCF Hessian                             ...  NO
IR spectrum                             ...  NO
VCD spectrum                            ...  NO
X-ray spectroscopy properties:
SCF XES/XAS/RIXS spectra                ...  NO


-------------
DIPOLE MOMENT
-------------

Method             : SCF
Type of density    : Electron Density
Multiplicity       :   2
Irrep              :   0
Energy             : -1865.3297156558169263 Eh
Relativity type    : 
Basis              : AO
                                X                 Y                 Z
Electronic contribution:     -0.002306740       0.002229383       0.001114160
Nuclear contribution   :      0.002966657      -0.002861740      -0.001340362
                        -----------------------------------------
Total Dipole Moment    :      0.000659917      -0.000632357      -0.000226202
                        -----------------------------------------
Magnitude (a.u.)       :      0.000941559
Magnitude (Debye)      :      0.002393253



--------------------
Rotational spectrum 
--------------------
 
Rotational constants in cm-1:             0.099303             0.099292             0.053792 
Rotational constants in MHz :          2977.026981          2976.697311          1612.642535 

Dipole components along the rotational axes: 
x,y,z [a.u.] :     0.000886    -0.000226    -0.000226 
x,y,z [Debye]:     0.002251    -0.000574    -0.000575 

 

Dipole moment calculation done in   0.0 sec 

Maximum memory used throughout the entire PROP-calculation: 9.0 MB

--------------------------------
SUGGESTED CITATIONS FOR THIS RUN
--------------------------------

Below you find a list of papers that are relevant to this ORCA run
We neither can nor want to force you to cite these papers, but we appreciate if you do
You receive ORCA, which is the product of decades of hard work by many enthusiastic individuals, for free
The only thing we kindly ask in return is that you cite our papers,
We deeply appreciate it, if you show your appreciation for ORCA by not just citing the generic ORCA reference.

Please note that relegating all ORCA citations to the supporting information does *not* help us.
SI sections are not indexed - citations you put there will not count into any citation statistics
But we need these citations in order to attract the funding resources that allow us to do what we are doing

Therefore, if you are a happy ORCA user, please consider citing a few of the papers listed below in the main body of your paper

In addition to the list printed below, the program has created the file file_input.bibtex that contains the list in bibtex format
You can import this file easily into all common literature databanks and citation aid programs


List of essential papers. We consider these as the minimum necessary citations

  1. Neese,F.
     Software update: the ORCA program system, version 5.0
     WIRES Comput. Molec. Sci., 2022 12(1)e1606
     doi.org/10.1002/wcms.1606

List of papers to cite with high priority. The work reported in these papers was absolutely
necessary for this run to complete.
Our perspective: the developers of density functionals and basis sets usually get cited in chemistry papers
Good! But without the algorithms to do something with them, the functionals or basis sets would not do anything.
Hence, in our opinion, the algorithm design and method developments papers are equally worthy of getting cited

  1. Neese,F.
     An improvement of the resolution of the identity approximation for the formation of the Coulomb matrix
     J. Comp. Chem., 2003 24(14)1740-1747
     doi.org/10.1002/jcc.10318
  2. Neese,F.
     The SHARK Integral Generation and Digestion System
     J. Comp. Chem., 2022  1-16
     doi.org/10.1002/jcc.26942

List of suggested additional citations. These are papers that are important in the 'surrounding' of 
of this run, or papers that preceded the highly important papers. If you like your results we are grateful for a citation.

  1. Neese,F.
     The ORCA program system
     WIRES Comput. Molec. Sci., 2012 2(1)73-78
     doi.org/10.1002/wcms.81
  2. Neese,F.
     Software update: the ORCA program system, version 4.0
     WIRES Comput. Molec. Sci., 2018 8(1)1-6
     doi.org/10.1002/wcms.1327
  3. Neese,F.; Wennmohs,F.; Becker,U.; Riplinger,C.
     The ORCA quantum chemistry program package
     J. Chem. Phys., 2020 152 Art. No. L224108
     doi.org/10.1063/5.0004608

List of optional additional citations

  1. Neese,F.
     Approximate second-order SCF convergence for spin unrestricted wavefunctions
     Chem. Phys. Lett., 2000 325(1-3)93-98
     doi.org/10.1016/s0009-2614(00)00662-x

Timings for individual modules:

Sum of individual times          ...       66.452 sec (=   1.108 min)
Startup calculation              ...        4.782 sec (=   0.080 min)   7.2 %
SCF iterations                   ...       46.543 sec (=   0.776 min)  70.0 %
Property calculations            ...        0.475 sec (=   0.008 min)   0.7 %
SCF Gradient evaluation          ...       14.553 sec (=   0.243 min)  21.9 %
Geometry relaxation              ...        0.099 sec (=   0.002 min)   0.1 %
                             ****ORCA TERMINATED NORMALLY****
TOTAL RUN TIME: 0 days 0 hours 1 minutes 7 seconds 359 msec
