
                                 *****************
                                 * O   R   C   A *
                                 *****************

                                            #,                                       
                                            ###                                      
                                            ####                                     
                                            #####                                    
                                            ######                                   
                                           ########,                                 
                                     ,,################,,,,,                         
                               ,,#################################,,                 
                          ,,##########################################,,             
                       ,#########################################, ''#####,          
                    ,#############################################,,   '####,        
                  ,##################################################,,,,####,       
                ,###########''''           ''''###############################       
              ,#####''   ,,,,##########,,,,          '''####'''          '####       
            ,##' ,,,,###########################,,,                        '##       
           ' ,,###''''                  '''############,,,                           
         ,,##''                                '''############,,,,        ,,,,,,###''
      ,#''                                            '''#######################'''  
     '                                                          ''''####''''         
             ,#######,   #######,   ,#######,      ##                                
            ,#'     '#,  ##    ##  ,#'     '#,    #''#        ,####,   ,####,        
            ##       ##  ##   ,#'  ##            #'  '#       #'       #'  '#        
            ##       ##  #######   ##           ,######,      #####,   #    #        
            '#,     ,#'  ##    ##  '#,     ,#' ,#      #,     #,   #   #,  ,#        
             '#######'   ##     ##  '#######'  #'      '#     '####' # '####'        



                #########################################################
                #                        -***-                          #
                #          Department of theory and spectroscopy        #
                #                                                       #
                #                      Frank Neese                      #
                #                                                       #
                #     Directorship, Architecture, Infrastructure        #
                #                    SHARK, DRIVERS                     #
                #        Core code/Algorithms in most modules           #
                #                                                       #
                #        Max Planck Institute fuer Kohlenforschung      #
                #                Kaiser Wilhelm Platz 1                 #
                #                 D-45470 Muelheim/Ruhr                 #
                #                      Germany                          #
                #                                                       #
                #                  All rights reserved                  #
                #                        -***-                          #
                #########################################################


                         Program Version 6.0.0  -   RELEASE   -


 With contributions from (in alphabetic order):
   Daniel Aravena         : Magnetic Suceptibility
   Michael Atanasov       : Ab Initio Ligand Field Theory (pilot matlab implementation)
   Alexander A. Auer      : GIAO ZORA, VPT2 properties, NMR spectrum
   Ute Becker             : All parallelization in ORCA, NUMFREQ, NUMCALC
   Giovanni Bistoni       : ED, misc. LED, open-shell LED, HFLD
   Martin Brehm           : Molecular dynamics
   Dmytro Bykov           : pre 5.0 version of the SCF Hessian
   Marcos Casanova-Páez   : Triplet and SCS-CIS(D). UHF-(DLPNO)-IP/EA/STEOM-CCSD. UHF-CVS-IP/STEOM-CCSD
   Vijay G. Chilkuri      : MRCI spin determinant printing, contributions to CSF-ICE
   Pauline Colinet        : FMM embedding
   Dipayan Datta          : RHF DLPNO-CCSD density
   Achintya Kumar Dutta   : EOM-CC, STEOM-CC
   Nicolas Foglia         : Exact transition moments, OPA infrastructure, MCD improvements
   Dmitry Ganyushin       : Spin-Orbit,Spin-Spin,Magnetic field MRCI
   Miquel Garcia          : C-PCM and meta-GGA Hessian, CCSD/C-PCM, Gaussian charge scheme
   Tiago L. C. Gouveia    : GS-ROHF, GS-ROCIS
   Yang Guo               : DLPNO-NEVPT2, F12-NEVPT2, CIM, IAO-localization
   Andreas Hansen         : Spin unrestricted coupled pair/coupled cluster methods
   Ingolf Harden          : AUTO-CI MPn and infrastructure 
   Benjamin Helmich-Paris : MC-RPA, TRAH-(SCF,CASSCF), AVAS, COSX integrals, SCF dyn. polar.
   Lee Huntington         : MR-EOM, pCC
   Robert Izsak           : Overlap fitted RIJCOSX, COSX-SCS-MP3, EOM
   Riya Kayal             : Wick's Theorem for AUTO-CI, AUTO-CI UHF-CCSDT
   Emily Kempfer          : AUTO-CI, RHF CISDT and CCSDT
   Christian Kollmar      : KDIIS, OOCD, Brueckner-CCSD(T), CCSD density, CASPT2, CASPT2-K, improved NEVPT2
   Axel Koslowski         : Symmetry handling
   Simone Kossmann        : Meta GGA functionals, TD-DFT gradient, OOMP2, (MP2 Hessian; deprecated post 5.0)
   Lucas Lang             : DCDCAS
   Marvin Lechner         : AUTO-CI (C++ implementation), FIC-MRCC
   Spencer Leger          : CASSCF response
   Dagmar Lenk            : GEPOL surface, SMD, ORCA-2-JSON
   Dimitrios Liakos       : Extrapolation schemes; Compound Job, initial MDCI parallelization
   Dimitrios Manganas     : Further ROCIS development; embedding schemes. LFT, Crystal Embedding
   Dimitrios Pantazis     : SARC Basis sets
   Anastasios Papadopoulos: AUTO-CI, single reference methods and gradients
   Taras Petrenko         : pre 6.0 DFT Hessian and TD-DFT gradient, (ASA, deprecated), ECA, 1-Electron XAS/XES, NRVS
   Peter Pinski           : DLPNO-MP2, DLPNO-MP2 Gradient
   Christoph Reimann      : Effective Core Potentials
   Marius Retegan         : Local ZFS, SOC
   Christoph Riplinger    : Optimizer, TS searches, QM/MM, DLPNO-CCSD(T), (RO)-DLPNO pert. Triples
   Michael Roemelt        : Original ROCIS implementation
   Masaaki Saitow         : Open-shell DLPNO-CCSD energy and density
   Barbara Sandhoefer     : DKH picture change effects
   Kantharuban Sivalingam : CASSCF convergence/infrastructure, NEVPT2 and variants, FIC-MRCI
   Bernardo de Souza      : ESD, SOC TD-DFT
   Georgi Stoychev        : AutoAux, RI-MP2 NMR, DLPNO-MP2 response, X2C
   Van Anh Tran           : RI-MP2 g-tensors
   Willem Van den Heuvel  : Paramagnetic NMR
   Zikuan Wang            : NOTCH, Electric field optimization 
   Frank Wennmohs         : Technical directorship and infrastructure
   Hang Xu                : AUTO-CI-Response properties 


 We gratefully acknowledge several colleagues who have allowed us to
 interface, adapt or use parts of their codes:
   Stefan Grimme, W. Hujo, H. Kruse, P. Pracht,  : VdW corrections, initial TS optimization,
                  C. Bannwarth, S. Ehlert,         DFT functionals, gCP, sTDA/sTD-DF
                  L. Wittmann, M. Mueller
   Ed Valeev, F. Pavosevic, A. Kumar             : LibInt (2-el integral package), F12 methods
   Garnet Chan, S. Sharma, J. Yang, R. Olivares  : DMRG
   Ulf Ekstrom                                   : XCFun DFT Library
   Mihaly Kallay                                 : mrcc  (arbitrary order and MRCC methods)
   Frank Weinhold                                : gennbo (NPA and NBO analysis)
   Simon Mueller                                 : openCOSMO-RS
   Christopher J. Cramer and Donald G. Truhlar   : smd solvation model
   Lars Goerigk                                  : TD-DFT with DH, B97 family of functionals
   V. Asgeirsson, H. Jonsson                     : NEB implementation
   FAccTs GmbH                                   : IRC, NEB, NEB-TS, DLPNO-Multilevel, CI-OPT
                                                   MM, QMMM, 2- and 3-layer-ONIOM, Crystal-QMMM,
                                                   LR-CPCM, SF, NACMEs, symmetry and pop. for TD-DFT,
                                                   nearIR, NL-DFT gradient (VV10), updates on ESD,
                                                   ML-optimized integration grids, MBIS, APM,
                                                   GOAT, DOCKER, SOLVATOR, interface openCOSMO-RS
   S Lehtola, MJT Oliveira, MAL Marques          : LibXC Library
   Liviu Ungur et al                             : ANISO software


 Your calculation uses the libint2 library for the computation of 2-el integrals
 For citations please refer to: http://libint.valeyev.net

 Your ORCA version has been built with support for libXC version: 6.2.2
 For citations please refer to: https://libxc.gitlab.io

 This ORCA versions uses:
   CBLAS   interface :  Fast vector & matrix operations
   LAPACKE interface :  Fast linear algebra routines
   Shared memory     :  Shared parallel matrices


Warning: RI is on but no J-basis has been assigned. Assigning Def2/J (nothing to worry about!)
================================================================================

----- Orbital basis set information -----
Your calculation utilizes the basis: def2-SVP
   F. Weigend and R. Ahlrichs, Phys. Chem. Chem. Phys. 7, 3297 (2005).

----- AuxJ basis set information -----
Your calculation utilizes the auxiliary basis: def2/J
   F. Weigend, Phys. Chem. Chem. Phys. 8, 1057 (2006).

================================================================================
                                        WARNINGS
                       Please study these warnings very carefully!
================================================================================


WARNING: your system is open-shell and RHF/RKS was chosen
  ===> : WILL SWITCH to UHF/UKS


WARNING: Geometry Optimization
  ===> : Switching off AutoStart
         For restart on a previous wavefunction, please use MOREAD

================================================================================
                                       INPUT FILE
================================================================================
NAME = file_input.inp
|  1> # optimasi triazine
|  2> # baris kode yang diawali tagar tidak akan dieksekusi
|  3> ! PBE def2-SVP Opt
|  4> * xyz 2 2
|  5> 	Cu        -0.20428        0.43186       -0.00348
|  6> 	N         -0.24346        2.20180       -0.87133
|  7> 	N         -1.97053        0.40159        0.86975
|  8> 	N         -0.16508       -1.33810       -0.87131
|  9> 	N          1.56196        0.46215        0.86976
| 10> 	H         -0.25077        2.84339       -0.04131
| 11> 	H         -1.10621        2.40606       -1.40872
| 12> 	H          0.62256        2.44072       -1.41186
| 13> 	H         -2.61704        0.38688        0.04370
| 14> 	H         -2.20214        1.25425        1.41197
| 15> 	H         -2.17085       -0.47465        1.40945
| 16> 	H         -0.15739       -1.97967       -0.04129
| 17> 	H         -1.03127       -1.57715       -1.41151
| 18> 	H          0.69750       -1.54224       -1.40902
| 19> 	H          2.20846        0.47794        0.04372
| 20> 	H          1.76195        1.33788        1.41039
| 21> 	H          1.79391       -0.39101        1.41107
| 22> *
| 23> 
| 24> 
| 25>                          ****END OF INPUT****
================================================================================

                       *****************************
                       * Geometry Optimization Run *
                       *****************************

Geometry optimization settings:
Update method            Update   .... BFGS
Choice of coordinates    CoordSys .... (2022) Redundant Internals
Initial Hessian          InHess   .... Almloef's Model
Max. no of cycles        MaxIter  .... 51

Convergence Tolerances:
Energy Change            TolE     ....  5.0000e-06 Eh
Max. Gradient            TolMAXG  ....  3.0000e-04 Eh/bohr
RMS Gradient             TolRMSG  ....  1.0000e-04 Eh/bohr
Max. Displacement        TolMAXD  ....  4.0000e-03 bohr
RMS Displacement         TolRMSD  ....  2.0000e-03 bohr
Strict Convergence                .... False

------------------------------------------------------------------------------
                        ORCA OPTIMIZATION COORDINATE SETUP
------------------------------------------------------------------------------

The optimization will be done in redundant internal coordinates (2022)
Making redundant internal coordinates   ...  (2022 redundants) done
Evaluating the initial hessian          ...  (Almloef) done
Evaluating the coordinates              ...  done
Calculating the B-matrix                .... done
Calculating the G-matrix                .... done
Diagonalizing the G-matrix              .... done
The first mode is                       ....   25
The number of degrees of freedom        ....   45

    -----------------------------------------------------------------
                    Redundant Internal Coordinates


    -----------------------------------------------------------------
         Definition                    Initial Value    Approx d2E/dq
    -----------------------------------------------------------------
      1. B(N   1,Cu  0)                  1.9716         0.668378   
      2. B(N   2,Cu  0)                  1.9706         0.671061   
      3. B(N   3,Cu  0)                  1.9717         0.668354   
      4. B(N   4,Cu  0)                  1.9706         0.671072   
      5. B(H   5,N   1)                  1.0491         0.374803   
      6. B(H   6,N   1)                  1.0367         0.392210   
      7. B(H   7,N   1)                  1.0484         0.375709   
      8. B(H   8,N   2)                  1.0491         0.374852   
      9. B(H   9,N   2)                  1.0367         0.392331   
     10. B(H  10,N   2)                  1.0484         0.375739   
     11. B(H  11,N   3)                  1.0491         0.374816   
     12. B(H  12,N   3)                  1.0484         0.375709   
     13. B(H  13,N   3)                  1.0367         0.392209   
     14. B(H  14,N   4)                  1.0491         0.374849   
     15. B(H  15,N   4)                  1.0484         0.375752   
     16. B(H  16,N   4)                  1.0367         0.392314   
     17. A(N   3,Cu  0,N   4)          101.0129         0.560081   
     18. A(N   1,Cu  0,N   4)          101.4826         0.560084   
     19. A(N   1,Cu  0,N   2)          101.0131         0.560083   
     20. A(N   2,Cu  0,N   4)          127.3909         0.560512   
     21. A(N   2,Cu  0,N   3)          101.4832         0.560079   
     22. A(N   1,Cu  0,N   3)          127.7719         0.559652   
     23. A(Cu  0,N   1,H   5)          101.5889         0.396396   
     24. A(H   6,N   1,H   7)          112.0394         0.291951   
     25. A(H   5,N   1,H   7)          105.9192         0.289877   
     26. A(Cu  0,N   1,H   7)          114.5244         0.396564   
     27. A(H   5,N   1,H   6)          106.4876         0.291840   
     28. A(Cu  0,N   1,H   6)          114.9329         0.399570   
     29. A(Cu  0,N   2,H   9)          114.7968         0.399874   
     30. A(Cu  0,N   2,H   8)          101.7509         0.396684   
     31. A(H   8,N   2,H   9)          106.6005         0.291861   
     32. A(H   9,N   2,H  10)          112.0543         0.291969   
     33. A(H   8,N   2,H  10)          106.0138         0.289886   
     34. A(Cu  0,N   2,H  10)          114.3438         0.396848   
     35. A(H  12,N   3,H  13)          112.0397         0.291951   
     36. A(H  11,N   3,H  13)          106.4889         0.291842   
     37. A(Cu  0,N   3,H  13)          114.9349         0.399568   
     38. A(H  11,N   3,H  12)          105.9182         0.289878   
     39. A(Cu  0,N   3,H  12)          114.5216         0.396561   
     40. A(Cu  0,N   3,H  11)          101.5892         0.396396   
     41. A(H  15,N   4,H  16)          112.0542         0.291969   
     42. A(H  14,N   4,H  16)          106.5978         0.291858   
     43. A(Cu  0,N   4,H  16)          114.7896         0.399872   
     44. A(H  14,N   4,H  15)          106.0161         0.289888   
     45. A(Cu  0,N   4,H  15)          114.3512         0.396852   
     46. A(Cu  0,N   4,H  14)          101.7512         0.396684   
     47. D(H   6,N   1,Cu  0,N   4)    179.7062         0.003700   
     48. D(H   6,N   1,Cu  0,N   2)    -48.1641         0.003700   
     49. D(H   5,N   1,Cu  0,N   4)    -65.7857         0.003700   
     50. D(H   5,N   1,Cu  0,N   2)     66.3441         0.003700   
     51. D(H   6,N   1,Cu  0,N   3)     65.8767         0.003700   
     52. D(H   5,N   1,Cu  0,N   3)   -179.6151         0.003700   
     53. D(H   8,N   2,Cu  0,N   1)     66.3730         0.003718   
     54. D(H   9,N   2,Cu  0,N   4)     65.5216         0.003718   
     55. D(H   9,N   2,Cu  0,N   3)    179.1382         0.003718   
     56. D(H   9,N   2,Cu  0,N   1)    -48.3072         0.003718   
     57. D(H   8,N   2,Cu  0,N   4)   -179.7983         0.003718   
     58. D(H   8,N   2,Cu  0,N   3)    -66.1817         0.003718   
     59. D(H  11,N   3,Cu  0,N   4)     66.3228         0.003700   
     60. D(H  11,N   3,Cu  0,N   2)    -65.8072         0.003700   
     61. D(H  11,N   3,Cu  0,N   1)   -179.6374         0.003700   
     62. D(H  12,N   3,Cu  0,N   4)    179.9809         0.003700   
     63. D(H  12,N   3,Cu  0,N   2)     47.8510         0.003700   
     64. D(H  12,N   3,Cu  0,N   1)    -65.9792         0.003700   
     65. D(H  15,N   4,Cu  0,N   3)   -179.7703         0.003718   
     66. D(H  15,N   4,Cu  0,N   2)    -65.9409         0.003718   
     67. D(H  15,N   4,Cu  0,N   1)     47.6754         0.003718   
     68. D(H  14,N   4,Cu  0,N   3)     66.4336         0.003718   
     69. D(H  14,N   4,Cu  0,N   2)   -179.7369         0.003718   
     70. D(H  14,N   4,Cu  0,N   1)    -66.1207         0.003718   
    -----------------------------------------------------------------

Number of atoms                         .... 17
Number of degrees of freedom            .... 70


         *************************************************************
         *                GEOMETRY OPTIMIZATION CYCLE   1            *
         *************************************************************
---------------------------------
CARTESIAN COORDINATES (ANGSTROEM)
---------------------------------
  Cu    -0.204280    0.431860   -0.003480
  N     -0.243460    2.201800   -0.871330
  N     -1.970530    0.401590    0.869750
  N     -0.165080   -1.338100   -0.871310
  N      1.561960    0.462150    0.869760
  H     -0.250770    2.843390   -0.041310
  H     -1.106210    2.406060   -1.408720
  H      0.622560    2.440720   -1.411860
  H     -2.617040    0.386880    0.043700
  H     -2.202140    1.254250    1.411970
  H     -2.170850   -0.474650    1.409450
  H     -0.157390   -1.979670   -0.041290
  H     -1.031270   -1.577150   -1.411510
  H      0.697500   -1.542240   -1.409020
  H      2.208460    0.477940    0.043720
  H      1.761950    1.337880    1.410390
  H      1.793910   -0.391010    1.411070

----------------------------
CARTESIAN COORDINATES (A.U.)
----------------------------
  NO LB      ZA    FRAG     MASS         X           Y           Z
   0 Cu   29.0000    0    63.550   -0.386033    0.816097   -0.006576
   1 N     7.0000    0    14.007   -0.460073    4.160799   -1.646575
   2 N     7.0000    0    14.007   -3.723762    0.758895    1.643589
   3 N     7.0000    0    14.007   -0.311956   -2.528643   -1.646537
   4 N     7.0000    0    14.007    2.951677    0.873337    1.643608
   5 H     1.0000    0     1.008   -0.473887    5.373228   -0.078065
   6 H     1.0000    0     1.008   -2.090434    4.546794   -2.662095
   7 H     1.0000    0     1.008    1.176468    4.612292   -2.668029
   8 H     1.0000    0     1.008   -4.945489    0.731097    0.082581
   9 H     1.0000    0     1.008   -4.161442    2.370189    2.668237
  10 H     1.0000    0     1.008   -4.102312   -0.896959    2.663474
  11 H     1.0000    0     1.008   -0.297424   -3.741034   -0.078027
  12 H     1.0000    0     1.008   -1.948818   -2.980382   -2.667367
  13 H     1.0000    0     1.008    1.318084   -2.914411   -2.662662
  14 H     1.0000    0     1.008    4.173385    0.903176    0.082619
  15 H     1.0000    0     1.008    3.329603    2.528227    2.665251
  16 H     1.0000    0     1.008    3.389999   -0.738902    2.666536

--------------------------------
INTERNAL COORDINATES (ANGSTROEM)
--------------------------------
 Cu     0   0   0     0.000000000000     0.00000000     0.00000000
 N      1   0   0     1.971645581361     0.00000000     0.00000000
 N      1   2   0     1.970554736185   101.01305796     0.00000000
 N      1   2   3     1.971655129707   127.77192446   114.04082226
 N      1   2   3     1.970550511735   101.48256470   227.87026978
 H      2   1   3     1.049106460089   101.58887277    66.34406251
 H      2   1   3     1.036748630190   114.93290722   311.83592135
 H      2   1   3     1.048449372979   114.52439112   180.00444684
 H      3   1   2     1.049071097066   101.75093693    66.37299623
 H      3   1   2     1.036665228557   114.79675160   311.69280873
 H      3   1   2     1.048427741907   114.34379558   180.16305268
 H      4   1   2     1.049096945663   101.58917904   180.36264080
 H      4   1   2     1.048449359101   114.52163558   294.02079974
 H      4   1   2     1.036749458693   114.93489716    65.85196509
 H      5   1   2     1.049072759965   101.75120834   293.87931052
 H      5   1   2     1.048417774506   114.35124277    47.67540400
 H      5   1   2     1.036677049133   114.78961017   179.20536341

---------------------------
INTERNAL COORDINATES (A.U.)
---------------------------
 Cu     0   0   0     0.000000000000     0.00000000     0.00000000
 N      1   0   0     3.725870181928     0.00000000     0.00000000
 N      1   2   0     3.723808783291   101.01305796     0.00000000
 N      1   2   3     3.725888225687   127.77192446   114.04082226
 N      1   2   3     3.723800800238   101.48256470   227.87026978
 H      2   1   3     1.982523894895   101.58887277    66.34406251
 H      2   1   3     1.959170980776   114.93290722   311.83592135
 H      2   1   3     1.981282180212   114.52439112   180.00444684
 H      3   1   2     1.982457068468   101.75093693    66.37299623
 H      3   1   2     1.959013374532   114.79675160   311.69280873
 H      3   1   2     1.981241303410   114.34379558   180.16305268
 H      4   1   2     1.982505915237   101.58917904   180.36264080
 H      4   1   2     1.981282153987   114.52163558   294.02079974
 H      4   1   2     1.959172546421   114.93489716    65.85196509
 H      5   1   2     1.982460210890   101.75120834   293.87931052
 H      5   1   2     1.981222467751   114.35124277    47.67540400
 H      5   1   2     1.959035712184   114.78961017   179.20536341

---------------------
BASIS SET INFORMATION
---------------------
There are 3 groups of distinct atoms

 Group   1 Type Cu  : 14s9p5d1f contracted to 5s3p2d1f pattern {63311/531/41/1}
 Group   2 Type N   : 7s4p1d contracted to 3s2p1d pattern {511/31/1}
 Group   3 Type H   : 4s1p contracted to 2s1p pattern {31/1}

Atom   0Cu   basis set group =>   1
Atom   1N    basis set group =>   2
Atom   2N    basis set group =>   2
Atom   3N    basis set group =>   2
Atom   4N    basis set group =>   2
Atom   5H    basis set group =>   3
Atom   6H    basis set group =>   3
Atom   7H    basis set group =>   3
Atom   8H    basis set group =>   3
Atom   9H    basis set group =>   3
Atom  10H    basis set group =>   3
Atom  11H    basis set group =>   3
Atom  12H    basis set group =>   3
Atom  13H    basis set group =>   3
Atom  14H    basis set group =>   3
Atom  15H    basis set group =>   3
Atom  16H    basis set group =>   3
---------------------------------
AUXILIARY/J BASIS SET INFORMATION
---------------------------------
There are 3 groups of distinct atoms

 Group   1 Type Cu  : 19s5p5d3f3g contracted to 8s5p4d3f3g pattern {121111111/11111/2111/111/111}
 Group   2 Type N   : 12s5p4d2f1g contracted to 6s4p3d1f1g pattern {711111/2111/211/2/1}
 Group   3 Type H   : 5s2p1d contracted to 3s1p1d pattern {311/2/1}

Atom   0Cu   basis set group =>   1
Atom   1N    basis set group =>   2
Atom   2N    basis set group =>   2
Atom   3N    basis set group =>   2
Atom   4N    basis set group =>   2
Atom   5H    basis set group =>   3
Atom   6H    basis set group =>   3
Atom   7H    basis set group =>   3
Atom   8H    basis set group =>   3
Atom   9H    basis set group =>   3
Atom  10H    basis set group =>   3
Atom  11H    basis set group =>   3
Atom  12H    basis set group =>   3
Atom  13H    basis set group =>   3
Atom  14H    basis set group =>   3
Atom  15H    basis set group =>   3
Atom  16H    basis set group =>   3
------------------------------------------------------------------------------
                             ORCA STARTUP CALCULATIONS
                           -- RI-GTO INTEGRALS CHOSEN --
------------------------------------------------------------------------------
------------------------------------------------------------------------------
                   ___                                                        
                  /   \      - P O W E R E D   B Y -                         
                 /     \                                                     
                 |  |  |   _    _      __       _____    __    __             
                 |  |  |  | |  | |    /  \     |  _  \  |  |  /  |          
                  \  \/   | |  | |   /    \    | | | |  |  | /  /          
                 / \  \   | |__| |  /  /\  \   | |_| |  |  |/  /          
                |  |  |   |  __  | /  /__\  \  |    /   |      \           
                |  |  |   | |  | | |   __   |  |    \   |  |\   \          
                \     /   | |  | | |  |  |  |  | |\  \  |  | \   \       
                 \___/    |_|  |_| |__|  |__|  |_| \__\ |__|  \__/        
                                                                              
                      - O R C A' S   B I G   F R I E N D -                    
                                      &                                       
                       - I N T E G R A L  F E E D E R -                       
                                                                              
 v1 FN, 2020, v2 2021, v3 2022-2024                                           
------------------------------------------------------------------------------


----------------------
SHARK INTEGRAL PACKAGE
----------------------

Number of atoms                             ...     17
Number of basis functions                   ...    147
Number of shells                            ...     71
Maximum angular momentum                    ...      3
Integral batch strategy                     ... SHARK/LIBINT Hybrid
RI-J (if used) integral strategy            ... SPLIT-RIJ (Revised 2003 algorithm where possible)
Printlevel                                  ...      1
Contraction scheme used                     ... SEGMENTED contraction
Prescreening option                         ... SCHWARTZ
   Thresh                                   ... 2.500e-11
   Tcut                                     ... 2.500e-12
   Tpresel                                  ... 2.500e-12 
Coulomb Range Separation                    ... NOT USED
Exchange Range Separation                   ... NOT USED
Multipole approximations                    ... NOT USED
Finite Nucleus Model                        ... NOT USED
CABS basis                                  ... NOT available
Auxiliary Coulomb fitting basis             ... AVAILABLE
   # of basis functions in Aux-J            ...    419
   # of shells in Aux-J                     ...    143
   Maximum angular momentum in Aux-J        ...      4
Auxiliary J/K fitting basis                 ... NOT available
Auxiliary Correlation fitting basis         ... NOT available
Auxiliary 'external' fitting basis          ... NOT available

Checking pre-screening integrals            ... done (  0.0 sec) Dimension = 71
Check shell pair data                       ... done (  0.0 sec)
Shell pair information
Shell pair cut-off parameter TPreSel        ...   2.5e-12
Total number of shell pairs                 ...      2556
Shell pairs after pre-screening             ...      2492
Total number of primitive shell pairs       ...      9581
Primitive shell pairs kept                  ...      6881
          la=0 lb=0:    843 shell pairs
          la=1 lb=0:    915 shell pairs
          la=1 lb=1:    262 shell pairs
          la=2 lb=0:    242 shell pairs
          la=2 lb=1:    138 shell pairs
          la=2 lb=2:     21 shell pairs
          la=3 lb=0:     41 shell pairs
          la=3 lb=1:     23 shell pairs
          la=3 lb=2:      6 shell pairs
          la=3 lb=3:      1 shell pairs

Calculating one electron integrals          ... done (  0.1 sec)
Calculating RI/J V-Matrix + Cholesky decomp.... done (  0.1 sec)
Calculating Nuclear repulsion               ... done (  0.0 sec) ENN=    430.608102072939 Eh

Diagonalization of the overlap matrix:
Smallest eigenvalue                        ... 1.155e-02
Time for diagonalization                   ...    0.020 sec
Threshold for overlap eigenvalues          ... 1.000e-07
Number of eigenvalues below threshold      ... 0
Time for construction of square roots      ...    0.004 sec
Total time needed                          ...    0.025 sec

-------------------
DFT GRID GENERATION
-------------------

General Integration Accuracy     IntAcc      ... 4.388
Radial Grid Type                 RadialGrid  ... OptM3 with GC (2021)
Angular Grid (max. ang.)         AngularGrid ... 4 (Lebedev-302)
Angular grid pruning method      GridPruning ... 4 (adaptive)
Weight generation scheme         WeightScheme... mBecke (2022)
Basis function cutoff            BFCut       ... 1.0000e-11
Integration weight cutoff        WCut        ... 1.0000e-14
Partially contracted basis set               ... off
Rotationally invariant grid construction     ... off
Angular grids for H and He will be reduced by one unit
Core-polarized basis detected: some atoms will have their core
                               angular grid increased.

Total number of grid points                  ...    74043
Total number of batches                      ...     1166
Average number of points per batch           ...       63
Average number of grid points per atom       ...     4355
Initializing property integral containers    ... done (  0.1 sec)

SHARK setup successfully completed in   2.2 seconds

Maximum memory used throughout the entire STARTUP-calculation: 32.6 MB
-------------------------------------------------------------------------------
                                 ORCA GUESS
                   Start orbitals & Density for SCF / CASSCF
-------------------------------------------------------------------------------

------------
SCF SETTINGS
------------
Hamiltonian:
 Density Functional     Method          .... DFT(GTOs)
 Exchange Functional    Exchange        .... PBE
   PBE kappa parameter   XKappa         ....  0.804000
   PBE mue parameter    XMuePBE         ....  0.219520
 Correlation Functional Correlation     .... PBE
   PBE beta parameter  CBetaPBE         ....  0.066725
 LDA part of GGA corr.  LDAOpt          .... PW91-LDA
 Gradients option       PostSCFGGA      .... off
   NL short-range parameter             ....  6.400000
 RI-approximation to the Coulomb term is turned on
   Number of AuxJ basis functions       .... 419


General Settings:
 Integral files         IntName         .... file_input
 Hartree-Fock type      HFTyp           .... UHF
 Total Charge           Charge          ....    2
 Multiplicity           Mult            ....    2
 Number of Electrons    NEL             ....   67
 Basis Dimension        Dim             ....  147
 Nuclear Repulsion      ENuc            ....    430.6081020729 Eh

Convergence Acceleration:
 AO-DIIS                CNVDIIS         .... on
   Start iteration      DIISMaxIt       ....    12
   Startup error        DIISStart       ....  0.200000
   # of expansion vecs  DIISMaxEq       ....     5
   Bias factor          DIISBfac        ....   1.050
   Max. coefficient     DIISMaxC        ....  10.000
 MO-DIIS                CNVKDIIS        .... off
 Trust-Rad. Augm. Hess. CNVTRAH         .... auto
   Auto Start mean grad. ratio tolernc. ....  1.125000
   Auto Start start iteration           ....    50
   Auto Start num. interpolation iter.  ....    10
   Max. Number of Micro iterations      ....    24
   Max. Number of Macro iterations      .... Maxiter - #DIIS iter
   Number of Davidson start vectors     ....     2
   Converg. threshold    (grad. norm)   ....   1.000e-05
   Grad. Scal. Fac. for Micro threshold ....   0.100
   Minimum threshold for Micro iter.    ....   1.000e-02
   NR start threshold (gradient norm)   ....   1.000e-04
   Initial trust radius                 ....   0.400
   Minimum AH scaling param. (alpha)    ....   1.000
   Maximum AH scaling param. (alpha)    .... 1000.000
   Quad. conv. algorithm                .... NR
   White noise on init. David. guess    .... on
   Maximum white noise                  ....   0.010
   Pseudo random numbers                .... off
   Inactive MOs                         .... canonical
   Orbital update algorithm             .... Taylor
   Preconditioner                       .... Diag
   Full preconditioner red. dimension   ....   250
 SOSCF                  CNVSOSCF        .... on
   Start iteration      SOSCFMaxIt      ....   150
   Startup grad/error   SOSCFStart      ....  0.003300
   Hessian update       SOSCFHessUp     .... L-BFGS
 Level Shifting         CNVShift        .... on
   Level shift para.    LevelShift      ....    0.2500
   Turn off err/grad.   ShiftErr        ....    0.0010
 Zerner damping         CNVZerner       .... off
 Static damping         CNVDamp         .... on
   Fraction old density DampFac         ....    0.7000
   Max. Damping (<1)    DampMax         ....    0.9800
   Min. Damping (>=0)   DampMin         ....    0.0000
   Turn off err/grad.   DampErr         ....    0.1000

SCF Procedure:
 Maximum # iterations   MaxIter         ....   125
 SCF integral mode      SCFMode         .... Direct
   Integral package                     .... SHARK and LIBINT hybrid scheme
 Reset frequency        DirectResetFreq ....    20
 Integral Threshold     Thresh          ....  2.500e-11 Eh
 Primitive CutOff       TCut            ....  2.500e-12 Eh

Convergence Tolerance:
 Convergence Check Mode ConvCheckMode   .... Total+1el-Energy
 Convergence forced     ConvForced      .... 0
 Energy Change          TolE            ....  1.000e-08 Eh
 1-El. energy change                    ....  1.000e-05 Eh
 Orbital Gradient       TolG            ....  1.000e-05
 Orbital Rotation angle TolX            ....  1.000e-05
 DIIS Error             TolErr          ....  5.000e-07

------------------------------
INITIAL GUESS: MODEL POTENTIAL
------------------------------
Loading Hartree-Fock densities                     ... done
Calculating cut-offs                               ... done
Initializing the effective Hamiltonian             ... done
Setting up the integral package (SHARK)            ... done
Starting the Coulomb interaction                   ... done (   0.4 sec)
Making the grid                                    ... done (   0.4 sec)
Mapping shells                                     ... done
Starting the XC term evaluation                    ... done (   0.5 sec)
  promolecular density results
     # of electrons  =     68.994524624
     EX              =    -95.245058337
     EC              =     -2.645081246
     EX+EC           =    -97.890139583
Transforming the Hamiltonian                       ... done (   0.0 sec)
Diagonalizing the Hamiltonian                      ... done (   0.0 sec)
Back transforming the eigenvectors                 ... done (   0.0 sec)
Now organizing SCF variables                       ... done
                      ------------------
                      INITIAL GUESS DONE (   1.3 sec)
                      ------------------
             **** ENERGY FILE WAS UPDATED (file_input.en.tmp) ****
Finished Guess after   1.5 sec
Maximum memory used throughout the entire GUESS-calculation: 16.7 MB

-------------------------------------------------------------------------------------------
                                      ORCA LEAN-SCF
                              memory conserving SCF solver
-------------------------------------------------------------------------------------------

----------------------------------------D-I-I-S--------------------------------------------
Iteration    Energy (Eh)           Delta-E    RMSDP     MaxDP     DIISErr   Damp  Time(sec)
-------------------------------------------------------------------------------------------
               ***  Starting incremental Fock matrix formation  ***
    1    -1865.0495374641682247     0.00e+00  2.06e-03  1.02e-01  1.05e-01  0.700   2.9
Warning: op=1 Small HOMO/LUMO gap (   0.028) - skipping pre-diagonalization
         Will do a full diagonalization
    2    -1865.1826667601853842    -1.33e-01  9.49e-04  4.47e-02  3.67e-02  0.700   2.7
                               ***Turning on AO-DIIS***
    3    -1865.2166599895317631    -3.40e-02  2.85e-04  6.27e-03  1.96e-02  0.700   2.5
    4    -1865.2396762483631392    -2.30e-02  3.82e-04  1.43e-02  1.23e-02  0.000   2.4
    5    -1865.2954654672203105    -5.58e-02  1.80e-04  1.08e-02  4.66e-03  0.000   2.4
                              *** Initializing SOSCF ***
---------------------------------------S-O-S-C-F--------------------------------------
Iteration    Energy (Eh)           Delta-E    RMSDP     MaxDP     MaxGrad    Time(sec)
--------------------------------------------------------------------------------------
    6    -1865.2962014684762835    -7.36e-04  7.54e-05  5.98e-03  1.77e-03     2.4
               *** Restarting incremental Fock matrix formation ***
    7    -1865.2962871040558639    -8.56e-05  6.35e-05  6.00e-03  1.96e-03     2.9
    8    -1865.2963072224306416    -2.01e-05  5.64e-05  1.99e-03  8.25e-04     2.1
    9    -1865.2963018726577502     5.35e-06  3.15e-05  8.23e-04  1.05e-03     2.1
   10    -1865.2963129938084421    -1.11e-05  2.06e-05  1.47e-03  3.88e-04     2.1
   11    -1865.2963128645510551     1.29e-07  1.24e-05  8.69e-04  2.44e-04     2.1
   12    -1865.2963148197904957    -1.96e-06  5.20e-07  1.98e-05  1.30e-05     2.2
   13    -1865.2963148450380686    -2.52e-08  1.77e-07  8.04e-06  3.61e-06     1.9
   14    -1865.2963148318967797     1.31e-08  3.61e-08  1.02e-06  5.68e-07     1.7
                  *** Gradient check signals convergence ***

               *****************************************************
               *                     SUCCESS                       *
               *           SCF CONVERGED AFTER  14 CYCLES          *
               *****************************************************

             **** ENERGY FILE WAS UPDATED (file_input.en.tmp) ****

----------------
TOTAL SCF ENERGY
----------------

Total Energy       :      -1865.29631483189678 Eh          -50757.29318 eV

Components:
Nuclear Repulsion  :        430.60810207293946 Eh           11717.44216 eV
Electronic Energy  :      -2295.90441690483613 Eh          -62474.73534 eV
One Electron Energy:      -3422.12538532760891 Eh          -93120.76590 eV
Two Electron Energy:       1126.22096842277278 Eh           30646.03056 eV

Virial components:
Potential Energy   :      -3724.29495762467423 Eh         -101343.21799 eV
Kinetic Energy     :       1858.99864279277745 Eh           50585.92481 eV
Virial Ratio       :          2.00338766898165

DFT components:
N(Alpha)           :       33.999948704277 electrons
N(Beta)            :       32.999948487298 electrons
N(Total)           :       66.999897191575 electrons
E(X)               :      -95.433134207411 Eh       
E(C)               :       -2.621281672711 Eh       
E(XC)              :      -98.054415880122 Eh       

---------------
SCF CONVERGENCE
---------------

  Last Energy change         ...   -1.3141e-08  Tolerance :   1.0000e-08
  Last MAX-Density change    ...    1.0212e-06  Tolerance :   1.0000e-07
  Last RMS-Density change    ...    3.6139e-08  Tolerance :   5.0000e-09
  Last DIIS Error            ...    1.7747e-03  Tolerance :   5.0000e-07
  Last Orbital Gradient      ...    5.6831e-07  Tolerance :   1.0000e-05
  Last Orbital Rotation      ...    1.5252e-06  Tolerance :   1.0000e-05


----------------------
UHF SPIN CONTAMINATION
----------------------

Warning: in a DFT calculation there is little theoretical justification to 
         calculate <S**2> as in Hartree-Fock theory. We will do it anyways
         but you should keep in mind that the values have only limited relevance

Expectation value of <S**2>     :     0.750536
Ideal value S*(S+1) for S=0.5   :     0.750000
Deviation                       :     0.000536

----------------
ORBITAL ENERGIES
----------------
                 SPIN UP ORBITALS
  NO   OCC          E(Eh)            E(eV) 
   0   1.0000    -321.958497     -8760.9361 
   1   1.0000     -38.754178     -1054.5548 
   2   1.0000     -34.061092      -926.8494 
   3   1.0000     -34.061032      -926.8478 
   4   1.0000     -34.051202      -926.5803 
   5   1.0000     -14.373617      -391.1260 
   6   1.0000     -14.373589      -391.1253 
   7   1.0000     -14.373567      -391.1247 
   8   1.0000     -14.373544      -391.1240 
   9   1.0000      -4.541771      -123.5879 
  10   1.0000      -3.089935       -84.0814 
  11   1.0000      -3.089671       -84.0742 
  12   1.0000      -3.045480       -82.8717 
  13   1.0000      -1.146002       -31.1843 
  14   1.0000      -1.137622       -30.9563 
  15   1.0000      -1.137464       -30.9520 
  16   1.0000      -1.133958       -30.8566 
  17   1.0000      -0.800128       -21.7726 
  18   1.0000      -0.795484       -21.6462 
  19   1.0000      -0.793251       -21.5855 
  20   1.0000      -0.785367       -21.3709 
  21   1.0000      -0.779792       -21.2192 
  22   1.0000      -0.779190       -21.2028 
  23   1.0000      -0.773051       -21.0358 
  24   1.0000      -0.770808       -20.9747 
  25   1.0000      -0.712472       -19.3873 
  26   1.0000      -0.709144       -19.2968 
  27   1.0000      -0.684596       -18.6288 
  28   1.0000      -0.684453       -18.6249 
  29   1.0000      -0.630163       -17.1476 
  30   1.0000      -0.610187       -16.6040 
  31   1.0000      -0.574656       -15.6372 
  32   1.0000      -0.573910       -15.6169 
  33   1.0000      -0.567478       -15.4419 
  34   0.0000      -0.349322        -9.5055 
  35   0.0000      -0.290001        -7.8913 
  36   0.0000      -0.289081        -7.8663 
  37   0.0000      -0.259886        -7.0719 
  38   0.0000      -0.243424        -6.6239 
  39   0.0000      -0.239175        -6.5083 
  40   0.0000      -0.235333        -6.4037 
  41   0.0000      -0.210950        -5.7402 
  42   0.0000      -0.204990        -5.5781 
  43   0.0000      -0.195190        -5.3114 
  44   0.0000      -0.192302        -5.2328 

                 SPIN DOWN ORBITALS
  NO   OCC          E(Eh)            E(eV) 
   0   1.0000    -321.958338     -8760.9318 
   1   1.0000     -38.740177     -1054.1738 
   2   1.0000     -34.047575      -926.4816 
   3   1.0000     -34.047239      -926.4725 
   4   1.0000     -34.047228      -926.4722 
   5   1.0000     -14.371707      -391.0740 
   6   1.0000     -14.371677      -391.0732 
   7   1.0000     -14.371658      -391.0727 
   8   1.0000     -14.371631      -391.0720 
   9   1.0000      -4.514270      -122.8395 
  10   1.0000      -3.054432       -83.1153 
  11   1.0000      -3.054325       -83.1124 
  12   1.0000      -3.036055       -82.6153 
  13   1.0000      -1.142530       -31.0898 
  14   1.0000      -1.134183       -30.8627 
  15   1.0000      -1.134025       -30.8584 
  16   1.0000      -1.130325       -30.7577 
  17   1.0000      -0.798161       -21.7191 
  18   1.0000      -0.793544       -21.5934 
  19   1.0000      -0.791311       -21.5327 
  20   1.0000      -0.782083       -21.2816 
  21   1.0000      -0.777387       -21.1538 
  22   1.0000      -0.777297       -21.1513 
  23   1.0000      -0.771282       -20.9876 
  24   1.0000      -0.769049       -20.9269 
  25   1.0000      -0.702577       -19.1181 
  26   1.0000      -0.681922       -18.5560 
  27   1.0000      -0.674624       -18.3575 
  28   1.0000      -0.674472       -18.3533 
  29   1.0000      -0.621043       -16.8994 
  30   1.0000      -0.592941       -16.1347 
  31   1.0000      -0.561396       -15.2764 
  32   1.0000      -0.560658       -15.2563 
  33   0.0000      -0.529273       -14.4022 
  34   0.0000      -0.347633        -9.4596 
  35   0.0000      -0.288933        -7.8623 
  36   0.0000      -0.288006        -7.8370 
  37   0.0000      -0.257823        -7.0157 
  38   0.0000      -0.242510        -6.5990 
  39   0.0000      -0.237983        -6.4758 
  40   0.0000      -0.234150        -6.3715 
  41   0.0000      -0.209579        -5.7029 
  42   0.0000      -0.203602        -5.5403 
  43   0.0000      -0.193725        -5.2715 
*Only the first 10 virtual orbitals were printed.

                    ********************************
                    * MULLIKEN POPULATION ANALYSIS *
                    ********************************

--------------------------------------------
MULLIKEN ATOMIC CHARGES AND SPIN POPULATIONS
--------------------------------------------
   0 Cu:    0.288009    0.618784
   1 N :   -0.178901    0.094857
   2 N :   -0.179087    0.094765
   3 N :   -0.178897    0.094850
   4 N :   -0.179089    0.094768
   5 H :    0.191097   -0.002463
   6 H :    0.205727    0.001506
   7 H :    0.209943    0.001500
   8 H :    0.191750   -0.002474
   9 H :    0.205695    0.001484
  10 H :    0.209772    0.001435
  11 H :    0.191091   -0.002463
  12 H :    0.209933    0.001497
  13 H :    0.205735    0.001508
  14 H :    0.191751   -0.002474
  15 H :    0.209793    0.001442
  16 H :    0.205677    0.001477
Sum of atomic charges         :    2.0000000
Sum of atomic spin populations:    1.0000000

-----------------------------------------------------
MULLIKEN REDUCED ORBITAL CHARGES AND SPIN POPULATIONS
-----------------------------------------------------
CHARGE
  0 Cus       :     6.570179  s :     6.570179
      pz      :     4.151114  p :    12.777286
      px      :     4.313073
      py      :     4.313099
      dz2     :     1.975913  d :     9.364265
      dxz     :     1.983140
      dyz     :     1.983227
      dx2y2   :     1.440449
      dxy     :     1.981536
      f0      :     0.000047  f :     0.000260
      f+1     :     0.000019
      f-1     :     0.000019
      f+2     :     0.000068
      f-2     :     0.000010
      f+3     :     0.000049
      f-3     :     0.000049

  1 N s       :     3.381041  s :     3.381041
      pz      :     1.187298  p :     3.787626
      px      :     1.162283
      py      :     1.438045
      dz2     :     0.000589  d :     0.010233
      dxz     :     0.002821
      dyz     :     0.003206
      dx2y2   :     0.001926
      dxy     :     0.001691

  2 N s       :     3.380634  s :     3.380634
      pz      :     1.188509  p :     3.788234
      px      :     1.437775
      py      :     1.161951
      dz2     :     0.000568  d :     0.010219
      dxz     :     0.003184
      dyz     :     0.002861
      dx2y2   :     0.001956
      dxy     :     0.001650

  3 N s       :     3.381040  s :     3.381040
      pz      :     1.187295  p :     3.787624
      px      :     1.162282
      py      :     1.438046
      dz2     :     0.000589  d :     0.010233
      dxz     :     0.002821
      dyz     :     0.003206
      dx2y2   :     0.001926
      dxy     :     0.001691

  4 N s       :     3.380634  s :     3.380634
      pz      :     1.188515  p :     3.788235
      px      :     1.437770
      py      :     1.161950
      dz2     :     0.000568  d :     0.010219
      dxz     :     0.003184
      dyz     :     0.002861
      dx2y2   :     0.001956
      dxy     :     0.001650

  5 H s       :     0.764952  s :     0.764952
      pz      :     0.019787  p :     0.043951
      px      :     0.008389
      py      :     0.015775

  6 H s       :     0.750554  s :     0.750554
      pz      :     0.013118  p :     0.043719
      px      :     0.019889
      py      :     0.010712

  7 H s       :     0.747071  s :     0.747071
      pz      :     0.012833  p :     0.042987
      px      :     0.019573
      py      :     0.010581

  8 H s       :     0.764323  s :     0.764323
      pz      :     0.019705  p :     0.043927
      px      :     0.015852
      py      :     0.008371

  9 H s       :     0.750590  s :     0.750590
      pz      :     0.013193  p :     0.043715
      px      :     0.010858
      py      :     0.019664

 10 H s       :     0.747248  s :     0.747248
      pz      :     0.012806  p :     0.042980
      px      :     0.010386
      py      :     0.019788

 11 H s       :     0.764956  s :     0.764956
      pz      :     0.019787  p :     0.043952
      px      :     0.008390
      py      :     0.015775

 12 H s       :     0.747080  s :     0.747080
      pz      :     0.012827  p :     0.042987
      px      :     0.019578
      py      :     0.010582

 13 H s       :     0.750545  s :     0.750545
      pz      :     0.013124  p :     0.043720
      px      :     0.019884
      py      :     0.010711

 14 H s       :     0.764322  s :     0.764322
      pz      :     0.019704  p :     0.043927
      px      :     0.015851
      py      :     0.008371

 15 H s       :     0.747227  s :     0.747227
      pz      :     0.012822  p :     0.042980
      px      :     0.010384
      py      :     0.019774

 16 H s       :     0.750609  s :     0.750609
      pz      :     0.013177  p :     0.043714
      px      :     0.010860
      py      :     0.019678


SPIN
  0 Cus       :    -0.001423  s :    -0.001423
      pz      :     0.058796  p :     0.054348
      px      :    -0.002232
      py      :    -0.002216
      dz2     :     0.001019  d :     0.565828
      dxz     :     0.000432
      dyz     :     0.000427
      dx2y2   :     0.562477
      dxy     :     0.001474
      f0      :     0.000017  f :     0.000031
      f+1     :     0.000006
      f-1     :     0.000006
      f+2     :    -0.000001
      f-2     :     0.000000
      f+3     :     0.000001
      f-3     :     0.000001

  1 N s       :     0.010430  s :     0.010430
      pz      :     0.017650  p :     0.084405
      px      :     0.001727
      py      :     0.065028
      dz2     :     0.000022  d :     0.000022
      dxz     :    -0.000062
      dyz     :     0.000199
      dx2y2   :    -0.000078
      dxy     :    -0.000058

  2 N s       :     0.010355  s :     0.010355
      pz      :     0.018014  p :     0.084388
      px      :     0.064631
      py      :     0.001744
      dz2     :     0.000021  d :     0.000022
      dxz     :     0.000198
      dyz     :    -0.000063
      dx2y2   :    -0.000078
      dxy     :    -0.000056

  3 N s       :     0.010428  s :     0.010428
      pz      :     0.017649  p :     0.084399
      px      :     0.001726
      py      :     0.065023
      dz2     :     0.000022  d :     0.000022
      dxz     :    -0.000062
      dyz     :     0.000199
      dx2y2   :    -0.000078
      dxy     :    -0.000058

  4 N s       :     0.010355  s :     0.010355
      pz      :     0.018015  p :     0.084392
      px      :     0.064633
      py      :     0.001744
      dz2     :     0.000021  d :     0.000022
      dxz     :     0.000198
      dyz     :    -0.000063
      dx2y2   :    -0.000078
      dxy     :    -0.000056

  5 H s       :    -0.002498  s :    -0.002498
      pz      :    -0.000064  p :     0.000035
      px      :    -0.000025
      py      :     0.000124

  6 H s       :     0.000887  s :     0.000887
      pz      :     0.000022  p :     0.000619
      px      :     0.000181
      py      :     0.000415

  7 H s       :     0.000902  s :     0.000902
      pz      :     0.000020  p :     0.000598
      px      :     0.000203
      py      :     0.000375

  8 H s       :    -0.002510  s :    -0.002510
      pz      :    -0.000064  p :     0.000037
      px      :     0.000125
      py      :    -0.000025

  9 H s       :     0.000864  s :     0.000864
      pz      :     0.000023  p :     0.000620
      px      :     0.000391
      py      :     0.000207

 10 H s       :     0.000837  s :     0.000837
      pz      :     0.000022  p :     0.000598
      px      :     0.000401
      py      :     0.000175

 11 H s       :    -0.002498  s :    -0.002498
      pz      :    -0.000064  p :     0.000035
      px      :    -0.000025
      py      :     0.000124

 12 H s       :     0.000899  s :     0.000899
      pz      :     0.000020  p :     0.000598
      px      :     0.000203
      py      :     0.000375

 13 H s       :     0.000889  s :     0.000889
      pz      :     0.000022  p :     0.000619
      px      :     0.000181
      py      :     0.000416

 14 H s       :    -0.002511  s :    -0.002511
      pz      :    -0.000064  p :     0.000037
      px      :     0.000125
      py      :    -0.000025

 15 H s       :     0.000844  s :     0.000844
      pz      :     0.000022  p :     0.000598
      px      :     0.000401
      py      :     0.000175

 16 H s       :     0.000857  s :     0.000857
      pz      :     0.000023  p :     0.000620
      px      :     0.000390
      py      :     0.000207



                     *******************************
                     * LOEWDIN POPULATION ANALYSIS *
                     *******************************

-------------------------------------------
LOEWDIN ATOMIC CHARGES AND SPIN POPULATIONS
-------------------------------------------
   0 Cu:    0.235026    0.629460
   1 N :    0.060182    0.086614
   2 N :    0.060274    0.086486
   3 N :    0.060180    0.086607
   4 N :    0.060274    0.086489
   5 H :    0.122220   -0.000307
   6 H :    0.126513    0.003244
   7 H :    0.132290    0.003177
   8 H :    0.122485   -0.000309
   9 H :    0.126400    0.003236
  10 H :    0.132124    0.003132
  11 H :    0.122212   -0.000307
  12 H :    0.132288    0.003174
  13 H :    0.126519    0.003246
  14 H :    0.122487   -0.000309
  15 H :    0.132131    0.003138
  16 H :    0.126394    0.003231

----------------------------------------------------
LOEWDIN REDUCED ORBITAL CHARGES AND SPIN POPULATIONS
----------------------------------------------------
CHARGE
  0 Cus       :     6.437264  s :     6.437264
      pz      :     4.189557  p :    12.844163
      px      :     4.327379
      py      :     4.327227
      dz2     :     1.984982  d :     9.483237
      dxz     :     2.011817
      dyz     :     2.011682
      dx2y2   :     1.487545
      dxy     :     1.987211
      f0      :     0.000068  f :     0.000310
      f+1     :     0.000018
      f-1     :     0.000018
      f+2     :     0.000071
      f-2     :     0.000008
      f+3     :     0.000064
      f-3     :     0.000063

  1 N s       :     3.084463  s :     3.084463
      pz      :     1.209668  p :     3.827882
      px      :     1.193224
      py      :     1.424991
      dz2     :     0.001983  d :     0.027473
      dxz     :     0.009018
      dyz     :     0.007749
      dx2y2   :     0.005754
      dxy     :     0.002970

  2 N s       :     3.084009  s :     3.084009
      pz      :     1.210567  p :     3.828246
      px      :     1.424692
      py      :     1.192988
      dz2     :     0.001913  d :     0.027471
      dxz     :     0.007738
      dyz     :     0.009107
      dx2y2   :     0.005825
      dxy     :     0.002888

  3 N s       :     3.084460  s :     3.084460
      pz      :     1.209668  p :     3.827886
      px      :     1.193224
      py      :     1.424994
      dz2     :     0.001983  d :     0.027473
      dxz     :     0.009018
      dyz     :     0.007749
      dx2y2   :     0.005753
      dxy     :     0.002970

  4 N s       :     3.084011  s :     3.084011
      pz      :     1.210568  p :     3.828244
      px      :     1.424688
      py      :     1.192988
      dz2     :     0.001912  d :     0.027471
      dxz     :     0.007737
      dyz     :     0.009107
      dx2y2   :     0.005825
      dxy     :     0.002889

  5 H s       :     0.765564  s :     0.765564
      pz      :     0.048928  p :     0.112216
      px      :     0.016585
      py      :     0.046703

  6 H s       :     0.759266  s :     0.759266
      pz      :     0.031680  p :     0.114221
      px      :     0.052379
      py      :     0.030163

  7 H s       :     0.756813  s :     0.756813
      pz      :     0.030546  p :     0.110897
      px      :     0.050736
      py      :     0.029615

  8 H s       :     0.765292  s :     0.765292
      pz      :     0.048739  p :     0.112223
      px      :     0.046926
      py      :     0.016558

  9 H s       :     0.759345  s :     0.759345
      pz      :     0.031964  p :     0.114255
      px      :     0.030720
      py      :     0.051571

 10 H s       :     0.756966  s :     0.756966
      pz      :     0.030528  p :     0.110909
      px      :     0.028840
      py      :     0.051542

 11 H s       :     0.765569  s :     0.765569
      pz      :     0.048929  p :     0.112218
      px      :     0.016587
      py      :     0.046703

 12 H s       :     0.756816  s :     0.756816
      pz      :     0.030529  p :     0.110897
      px      :     0.050749
      py      :     0.029618

 13 H s       :     0.759260  s :     0.759260
      pz      :     0.031696  p :     0.114221
      px      :     0.052365
      py      :     0.030160

 14 H s       :     0.765291  s :     0.765291
      pz      :     0.048738  p :     0.112222
      px      :     0.046925
      py      :     0.016560

 15 H s       :     0.756957  s :     0.756957
      pz      :     0.030577  p :     0.110913
      px      :     0.028834
      py      :     0.051502

 16 H s       :     0.759354  s :     0.759354
      pz      :     0.031915  p :     0.114251
      px      :     0.030727
      py      :     0.051609


SPIN
  0 Cus       :    -0.002305  s :    -0.002305
      pz      :     0.069946  p :     0.065128
      px      :    -0.002414
      py      :    -0.002405
      dz2     :     0.000852  d :     0.566600
      dxz     :     0.000635
      dyz     :     0.000628
      dx2y2   :     0.563111
      dxy     :     0.001373
      f0      :     0.000025  f :     0.000038
      f+1     :     0.000006
      f-1     :     0.000006
      f+2     :    -0.000001
      f-2     :     0.000000
      f+3     :     0.000001
      f-3     :     0.000001

  1 N s       :     0.008921  s :     0.008921
      pz      :     0.016465  p :     0.077562
      px      :     0.001155
      py      :     0.059942
      dz2     :     0.000021  d :     0.000131
      dxz     :    -0.000096
      dyz     :     0.000371
      dx2y2   :    -0.000099
      dxy     :    -0.000066

  2 N s       :     0.008857  s :     0.008857
      pz      :     0.016810  p :     0.077502
      px      :     0.059527
      py      :     0.001165
      dz2     :     0.000022  d :     0.000127
      dxz     :     0.000366
      dyz     :    -0.000098
      dx2y2   :    -0.000099
      dxy     :    -0.000064

  3 N s       :     0.008920  s :     0.008920
      pz      :     0.016464  p :     0.077556
      px      :     0.001155
      py      :     0.059937
      dz2     :     0.000021  d :     0.000131
      dxz     :    -0.000096
      dyz     :     0.000371
      dx2y2   :    -0.000099
      dxy     :    -0.000066

  4 N s       :     0.008857  s :     0.008857
      pz      :     0.016811  p :     0.077505
      px      :     0.059529
      py      :     0.001164
      dz2     :     0.000022  d :     0.000127
      dxz     :     0.000366
      dyz     :    -0.000098
      dx2y2   :    -0.000099
      dxy     :    -0.000064

  5 H s       :    -0.001649  s :    -0.001649
      pz      :     0.000187  p :     0.001342
      px      :    -0.000002
      py      :     0.001158

  6 H s       :     0.001103  s :     0.001103
      pz      :     0.000260  p :     0.002141
      px      :     0.000368
      py      :     0.001513

  7 H s       :     0.001126  s :     0.001126
      pz      :     0.000245  p :     0.002050
      px      :     0.000404
      py      :     0.001402

  8 H s       :    -0.001655  s :    -0.001655
      pz      :     0.000192  p :     0.001346
      px      :     0.001156
      py      :    -0.000002

  9 H s       :     0.001090  s :     0.001090
      pz      :     0.000266  p :     0.002146
      px      :     0.001468
      py      :     0.000412

 10 H s       :     0.001078  s :     0.001078
      pz      :     0.000252  p :     0.002054
      px      :     0.001441
      py      :     0.000360

 11 H s       :    -0.001649  s :    -0.001649
      pz      :     0.000187  p :     0.001342
      px      :    -0.000002
      py      :     0.001157

 12 H s       :     0.001124  s :     0.001124
      pz      :     0.000245  p :     0.002050
      px      :     0.000404
      py      :     0.001401

 13 H s       :     0.001104  s :     0.001104
      pz      :     0.000260  p :     0.002141
      px      :     0.000368
      py      :     0.001513

 14 H s       :    -0.001655  s :    -0.001655
      pz      :     0.000192  p :     0.001346
      px      :     0.001156
      py      :    -0.000002

 15 H s       :     0.001084  s :     0.001084
      pz      :     0.000252  p :     0.002054
      px      :     0.001442
      py      :     0.000360

 16 H s       :     0.001085  s :     0.001085
      pz      :     0.000266  p :     0.002146
      px      :     0.001467
      py      :     0.000412



                      *****************************
                      * MAYER POPULATION ANALYSIS *
                      *****************************

  NA   - Mulliken gross atomic population
  ZA   - Total nuclear charge
  QA   - Mulliken gross atomic charge
  VA   - Mayer's total valence
  BVA  - Mayer's bonded valence
  FA   - Mayer's free valence

  ATOM       NA         ZA         QA         VA         BVA        FA
  0 Cu    28.7120    29.0000     0.2880     3.1274     2.7415     0.3859
  1 N      7.1789     7.0000    -0.1789     3.5178     3.5098     0.0080
  2 N      7.1791     7.0000    -0.1791     3.5181     3.5101     0.0080
  3 N      7.1789     7.0000    -0.1789     3.5178     3.5098     0.0080
  4 N      7.1791     7.0000    -0.1791     3.5181     3.5101     0.0080
  5 H      0.8089     1.0000     0.1911     0.9664     0.9664     0.0000
  6 H      0.7943     1.0000     0.2057     0.9686     0.9686     0.0000
  7 H      0.7901     1.0000     0.2099     0.9657     0.9657     0.0000
  8 H      0.8082     1.0000     0.1918     0.9662     0.9662     0.0000
  9 H      0.7943     1.0000     0.2057     0.9685     0.9685     0.0000
 10 H      0.7902     1.0000     0.2098     0.9657     0.9657     0.0000
 11 H      0.8089     1.0000     0.1911     0.9664     0.9664     0.0000
 12 H      0.7901     1.0000     0.2099     0.9657     0.9657     0.0000
 13 H      0.7943     1.0000     0.2057     0.9686     0.9685     0.0000
 14 H      0.8082     1.0000     0.1918     0.9662     0.9662     0.0000
 15 H      0.7902     1.0000     0.2098     0.9657     0.9657     0.0000
 16 H      0.7943     1.0000     0.2057     0.9685     0.9685     0.0000

  Mayer bond orders larger than 0.100000
B(  0-Cu,  1-N ) :   0.6499 B(  0-Cu,  2-N ) :   0.6504 B(  0-Cu,  3-N ) :   0.6499 
B(  0-Cu,  4-N ) :   0.6504 B(  1-N ,  5-H ) :   0.9418 B(  1-N ,  6-H ) :   0.9422 
B(  1-N ,  7-H ) :   0.9396 B(  2-N ,  8-H ) :   0.9417 B(  2-N ,  9-H ) :   0.9422 
B(  2-N , 10-H ) :   0.9396 B(  3-N , 11-H ) :   0.9418 B(  3-N , 12-H ) :   0.9396 
B(  3-N , 13-H ) :   0.9422 B(  4-N , 14-H ) :   0.9417 B(  4-N , 15-H ) :   0.9396 
B(  4-N , 16-H ) :   0.9422 

-------
TIMINGS
-------

Total SCF time: 0 days 0 hours 0 min 33 sec 

Total time                  ....      33.017 sec
Sum of individual times     ....      32.820 sec  ( 99.4%)

SCF preparation             ....       0.305 sec  (  0.9%)
Fock matrix formation       ....      30.094 sec  ( 91.1%)
  Startup                   ....       0.133 sec  (  0.4% of F)
  Split-RI-J                ....       6.454 sec  ( 21.4% of F)
  XC integration            ....      23.308 sec  ( 77.5% of F)
    Basis function eval.    ....       6.956 sec  ( 29.8% of XC)
    Density eval.           ....       5.401 sec  ( 23.2% of XC)
    XC-Functional eval.     ....       0.979 sec  (  4.2% of XC)
    XC-Potential eval.      ....       8.289 sec  ( 35.6% of XC)
Diagonalization             ....       0.000 sec  (  0.0%)
Density matrix formation    ....       0.673 sec  (  2.0%)
Total Energy calculation    ....       0.519 sec  (  1.6%)
Population analysis         ....       0.103 sec  (  0.3%)
Orbital Transformation      ....       0.095 sec  (  0.3%)
Orbital Orthonormalization  ....       0.000 sec  (  0.0%)
DIIS solution               ....       0.586 sec  (  1.8%)
SOSCF solution              ....       0.445 sec  (  1.3%)
Finished LeanSCF after  33.1 sec

Maximum memory used throughout the entire LEANSCF-calculation: 16.8 MB

-------------------------   --------------------
FINAL SINGLE POINT ENERGY     -1865.296314831897
-------------------------   --------------------

------------------------------------------------------------------------------
                         ORCA SCF GRADIENT CALCULATION
------------------------------------------------------------------------------

Nuc. rep. gradient        (SHARK) ... done (  0.0 sec)
HCore & Overlap gradient  (SHARK) ... done (  0.4 sec)
Split-RIJ-J gradient      (SHARK) ... done (  2.0 sec)
XC gradient                       ... done ( 12.0 sec)

------------------
CARTESIAN GRADIENT
------------------

   1   Cu  :    0.000000614    0.000001830    0.000513098
   2   N   :   -0.007611769   -0.022926745   -0.018321631
   3   N   :    0.022687328    0.008560513    0.018033027
   4   N   :    0.007610579    0.022921453   -0.018319413
   5   N   :   -0.022687158   -0.008550848    0.018023845
   6   H   :    0.000563092   -0.002230965    0.014970178
   7   H   :   -0.006919515   -0.001973632    0.003664362
   8   H   :    0.014270417    0.000433112   -0.000413769
   9   H   :    0.002166731   -0.000431615   -0.015034283
  10   H   :    0.001866466    0.006983570   -0.003588651
  11   H   :    0.000328944   -0.014323483    0.000434673
  12   H   :   -0.000559991    0.002234961    0.014965076
  13   H   :   -0.014271906   -0.000434117   -0.000407068
  14   H   :    0.006919496    0.001973034    0.003660157
  15   H   :   -0.002166055    0.000442732   -0.015034334
  16   H   :   -0.000331243    0.014312725    0.000449039
  17   H   :   -0.001866030   -0.006992527   -0.003594304

Difference to translation invariance:
           :    0.0000000000   -0.0000000001    0.0000000000

Difference to rotation invariance:
           :   -0.0000009062   -0.0000005394   -0.0002490008

Norm of the Cartesian gradient     ...    0.0752613307
RMS gradient                       ...    0.0105386942
MAX gradient                       ...    0.0229267448

-------
TIMINGS
-------

Total SCF gradient time     ....       14.337 sec

Densities                   ....       0.008 sec  (  0.1%)
One electron gradient       ....       0.358 sec  (  2.5%)
RI-J Coulomb gradient       ....       1.990 sec  ( 13.9%)
XC gradient                 ....      11.978 sec  ( 83.5%)

Maximum memory used throughout the entire SCFGRAD-calculation: 22.2 MB
------------------------------------------------------------------------------
                         ORCA GEOMETRY RELAXATION STEP
------------------------------------------------------------------------------

Reading the OPT-File                    .... done
Getting information on internals        .... done
Copying old internal coords+grads       .... done
Making the new internal coordinates     .... (2022 redundants) done
Validating the new internal coordinates .... (2022 redundants) done
Calculating the B-matrix                .... done
Calculating the G,G- and P matrices     .... done
Transforming gradient to internals      .... done
Projecting the internal gradient        .... done
Number of atoms                         ....  17
Number of internal coordinates          ....  70
Current Energy                          .... -1865.296314832 Eh
Current gradient norm                   ....     0.075261331 Eh/bohr
Maximum allowed component of the step   ....  0.300
Current trust radius                    ....  0.300
Evaluating the initial hessian          ....  (Almloef) done
Projecting the Hessian                  .... done
Forming the augmented Hessian           .... done
Diagonalizing the augmented Hessian     .... done
Last element of RFO vector              ....  0.980280186
Lowest eigenvalues of augmented Hessian:
 -0.014626410  0.003700283  0.003700440  0.003718323  0.003718443
Length of the computed step             ....  0.201587918
The final length of the internal step   ....  0.201587918
Converting the step to Cartesian space:
 Initial RMS(Int)=    0.0240943647
Transforming coordinates:
 Iter   0:  RMS(Cart)=    0.0448269114 RMS(Int)=    1.2969069193
done
Storing new coordinates                 .... done

                                .--------------------.
          ----------------------|Geometry convergence|-------------------------
          Item                value                   Tolerance       Converged
          ---------------------------------------------------------------------
          RMS gradient        0.0094373455            0.0001000000      NO
          MAX gradient        0.0243270054            0.0003000000      NO
          RMS step            0.0240943647            0.0020000000      NO
          MAX step            0.0526175579            0.0040000000      NO
          ........................................................
          Max(Bonds)      0.0188      Max(Angles)    3.01
          Max(Dihed)        1.57      Max(Improp)    0.00
          ---------------------------------------------------------------------

The optimization has not yet converged - more geometry cycles are needed


    ---------------------------------------------------------------------------
                         Redundant Internal Coordinates
                            (Angstroem and degrees)

        Definition                    Value    dE/dq     Step     New-Value
    ----------------------------------------------------------------------------
     1. B(N   1,Cu  0)                1.9716 -0.023928  0.0185    1.9902   
     2. B(N   2,Cu  0)                1.9706 -0.024326  0.0188    1.9893   
     3. B(N   3,Cu  0)                1.9717 -0.023926  0.0185    1.9902   
     4. B(N   4,Cu  0)                1.9706 -0.024327  0.0188    1.9893   
     5. B(H   5,N   1)                1.0491  0.010476 -0.0142    1.0349   
     6. B(H   6,N   1)                1.0367  0.003473 -0.0045    1.0322   
     7. B(H   7,N   1)                1.0484  0.012097 -0.0164    1.0320   
     8. B(H   8,N   2)                1.0491  0.010509 -0.0143    1.0348   
     9. B(H   9,N   2)                1.0367  0.003447 -0.0045    1.0322   
    10. B(H  10,N   2)                1.0484  0.012135 -0.0164    1.0320   
    11. B(H  11,N   3)                1.0491  0.010469 -0.0142    1.0349   
    12. B(H  12,N   3)                1.0484  0.012097 -0.0164    1.0320   
    13. B(H  13,N   3)                1.0367  0.003473 -0.0045    1.0322   
    14. B(H  14,N   4)                1.0491  0.010510 -0.0143    1.0348   
    15. B(H  15,N   4)                1.0484  0.012126 -0.0164    1.0320   
    16. B(H  16,N   4)                1.0367  0.003458 -0.0045    1.0322   
    17. A(N   3,Cu  0,N   4)          101.01  0.003576   -0.65    100.36   
    18. A(N   1,Cu  0,N   4)          101.48  0.004002   -0.71    100.77   
    19. A(N   1,Cu  0,N   2)          101.01  0.003576   -0.65    100.36   
    20. A(N   2,Cu  0,N   4)          127.39 -0.009433    1.70    129.09   
    21. A(N   2,Cu  0,N   3)          101.48  0.004002   -0.71    100.77   
    22. A(N   1,Cu  0,N   3)          127.77 -0.009323    1.66    129.44   
    23. A(Cu  0,N   1,H   5)          101.59 -0.019331    3.01    104.60   
    24. A(H   6,N   1,H   7)          112.04  0.012861   -2.58    109.46   
    25. A(H   5,N   1,H   7)          105.92 -0.001682    0.17    106.09   
    26. A(Cu  0,N   1,H   7)          114.52 -0.002106    0.16    114.69   
    27. A(H   5,N   1,H   6)          106.49  0.006238   -0.19    106.30   
    28. A(Cu  0,N   1,H   6)          114.93  0.000890    0.05    114.99   
    29. A(Cu  0,N   2,H   9)          114.80  0.000713    0.08    114.88   
    30. A(Cu  0,N   2,H   8)          101.75 -0.019211    2.99    104.74   
    31. A(H   8,N   2,H   9)          106.60  0.006338   -0.23    106.37   
    32. A(H   9,N   2,H  10)          112.05  0.012918   -2.58    109.47   
    33. A(H   8,N   2,H  10)          106.01 -0.001394    0.13    106.15   
    34. A(Cu  0,N   2,H  10)          114.34 -0.002346    0.21    114.55   
    35. A(H  12,N   3,H  13)          112.04  0.012670   -2.58    109.46   
    36. A(H  11,N   3,H  13)          106.49 -0.000816   -0.01    106.48   
    37. A(Cu  0,N   3,H  13)          114.93 -0.001837    0.10    115.04   
    38. A(H  11,N   3,H  12)          105.92  0.005778   -0.01    105.90   
    39. A(Cu  0,N   3,H  12)          114.52  0.000443    0.12    114.64   
    40. A(Cu  0,N   3,H  11)          101.59 -0.019202    3.01    104.60   
    41. A(H  15,N   4,H  16)          112.05  0.012705   -2.57    109.49   
    42. A(H  14,N   4,H  16)          106.60 -0.000498   -0.06    106.54   
    43. A(Cu  0,N   4,H  16)          114.79 -0.001986    0.13    114.92   
    44. A(H  14,N   4,H  15)          106.02  0.005881   -0.06    105.96   
    45. A(Cu  0,N   4,H  15)          114.35  0.000159    0.16    114.51   
    46. A(Cu  0,N   4,H  14)          101.75 -0.019068    2.99    104.74   
    47. D(H   6,N   1,Cu  0,N   4)    179.71  0.005458   -1.43    178.27   
    48. D(H   6,N   1,Cu  0,N   2)    -48.16 -0.001653   -0.14    -48.31   
    49. D(H   5,N   1,Cu  0,N   4)    -65.79  0.001564    0.19    -65.59   
    50. D(H   5,N   1,Cu  0,N   2)     66.34 -0.005547    1.48     67.83   
    51. D(H   6,N   1,Cu  0,N   3)     65.88  0.002017   -0.80     65.07   
    52. D(H   5,N   1,Cu  0,N   3)   -179.62 -0.001877    0.82   -178.79   
    53. D(H   8,N   2,Cu  0,N   1)     66.37 -0.005422    1.45     67.83   
    54. D(H   9,N   2,Cu  0,N   4)     65.52  0.001949   -0.76     64.77   
    55. D(H   9,N   2,Cu  0,N   3)    179.14  0.005318   -1.36    177.78   
    56. D(H   9,N   2,Cu  0,N   1)    -48.31 -0.001653   -0.12    -48.43   
    57. D(H   8,N   2,Cu  0,N   4)   -179.80 -0.001820    0.81   -178.98   
    58. D(H   8,N   2,Cu  0,N   3)    -66.18  0.001550    0.21    -65.97   
    59. D(H  11,N   3,Cu  0,N   4)     66.32 -0.001453   -0.23     66.09   
    60. D(H  11,N   3,Cu  0,N   2)    -65.81  0.005658   -1.52    -67.33   
    61. D(H  11,N   3,Cu  0,N   1)   -179.64  0.002217   -0.89   -180.53   
    62. D(H  12,N   3,Cu  0,N   4)    179.98 -0.005747    1.57    181.55   
    63. D(H  12,N   3,Cu  0,N   2)     47.85  0.001363    0.28     48.13   
    64. D(H  12,N   3,Cu  0,N   1)    -65.98 -0.002078    0.91    -65.07   
    65. D(H  15,N   4,Cu  0,N   3)   -179.77 -0.005630    1.54   -178.23   
    66. D(H  15,N   4,Cu  0,N   2)    -65.94 -0.002028    0.90    -65.04   
    67. D(H  15,N   4,Cu  0,N   1)     47.68  0.001342    0.30     47.98   
    68. D(H  14,N   4,Cu  0,N   3)     66.43 -0.001444   -0.21     66.22   
    69. D(H  14,N   4,Cu  0,N   2)   -179.74  0.002158   -0.85   -180.59   
    70. D(H  14,N   4,Cu  0,N   1)    -66.12  0.005528   -1.45    -67.57   
    ----------------------------------------------------------------------------

Geometry step timings:
Preparation and reading OPT file:      0.014 s (50.000 %)
Internal coordinates            :      0.000 s ( 0.000 %)
B/P matrices and projection     :      0.002 s ( 7.143 %)
Hessian update/contruction      :      0.003 s (10.714 %)
Making the step                 :      0.004 s (14.286 %)
Converting the step to Cartesian:      0.001 s ( 3.571 %)
Storing new data                :      0.000 s ( 0.000 %)
Checking convergence            :      0.000 s ( 0.000 %)
Final printing                  :      0.004 s (14.286 %)
Total time                      :      0.028 s

Time for energy+gradient        :     53.028 s
Time for complete geometry iter :     53.454 s

         *************************************************************
         *                GEOMETRY OPTIMIZATION CYCLE   2            *
         *************************************************************
---------------------------------
CARTESIAN COORDINATES (ANGSTROEM)
---------------------------------
  Cu    -0.204360    0.431931   -0.003106
  N     -0.242250    2.232339   -0.850414
  N     -2.001615    0.399240    0.849086
  N     -0.163846   -1.365871   -0.855828
  N      1.590267    0.462006    0.854695
  H     -0.236822    2.894648   -0.055256
  H     -1.094769    2.440009   -1.394093
[...]

 15 H s       :    -0.000527  s :    -0.000527
      pz      :    -0.000010  p :     0.000667
      px      :     0.000580
      py      :     0.000097

 16 H s       :    -0.000533  s :    -0.000533
      pz      :    -0.000010  p :     0.000667
      px      :     0.000559
      py      :     0.000118



                     *******************************
                     * LOEWDIN POPULATION ANALYSIS *
                     *******************************

-------------------------------------------
LOEWDIN ATOMIC CHARGES AND SPIN POPULATIONS
-------------------------------------------
   0 Cu:    0.328264    0.542311
   1 N :    0.056478    0.109037
   2 N :    0.056480    0.109045
   3 N :    0.056351    0.108940
   4 N :    0.056353    0.108947
   5 H :    0.121850    0.000768
   6 H :    0.119859    0.002335
   7 H :    0.119833    0.002330
   8 H :    0.121846    0.000769
   9 H :    0.119863    0.002337
  10 H :    0.119832    0.002328
  11 H :    0.121855    0.000771
  12 H :    0.119829    0.002332
  13 H :    0.119813    0.002323
  14 H :    0.121851    0.000772
  15 H :    0.119830    0.002330
  16 H :    0.119814    0.002324

----------------------------------------------------
LOEWDIN REDUCED ORBITAL CHARGES AND SPIN POPULATIONS
----------------------------------------------------
CHARGE
  0 Cus       :     6.500052  s :     6.500052
      pz      :     4.050948  p :    12.675129
      px      :     4.312088
      py      :     4.312093
      dz2     :     1.966983  d :     9.496327
      dxz     :     1.995726
      dyz     :     1.995728
      dx2y2   :     1.548952
      dxy     :     1.988939
      f0      :     0.000018  f :     0.000228
      f+1     :     0.000030
      f-1     :     0.000030
      f+2     :     0.000012
      f-2     :     0.000001
      f+3     :     0.000068
      f-3     :     0.000068

  1 N s       :     3.096293  s :     3.096293
      pz      :     1.206082  p :     3.819384
      px      :     1.204774
      py      :     1.408528
      dz2     :     0.002474  d :     0.027846
      dxz     :     0.008667
      dyz     :     0.008035
      dx2y2   :     0.004006
      dxy     :     0.004664

  2 N s       :     3.096293  s :     3.096293
      pz      :     1.206066  p :     3.819381
      px      :     1.408533
      py      :     1.204782
      dz2     :     0.002476  d :     0.027846
      dxz     :     0.008035
      dyz     :     0.008664
      dx2y2   :     0.004006
      dxy     :     0.004664

  3 N s       :     3.096352  s :     3.096352
      pz      :     1.206151  p :     3.819454
      px      :     1.204775
      py      :     1.408528
      dz2     :     0.002460  d :     0.027843
      dxz     :     0.008680
      dyz     :     0.008039
      dx2y2   :     0.004013
      dxy     :     0.004652

  4 N s       :     3.096353  s :     3.096353
      pz      :     1.206136  p :     3.819452
      px      :     1.408553
      py      :     1.204763
      dz2     :     0.002462  d :     0.027843
      dxz     :     0.008040
      dyz     :     0.008676
      dx2y2   :     0.004012
      dxy     :     0.004653

  5 H s       :     0.763997  s :     0.763997
      pz      :     0.052941  p :     0.114153
      px      :     0.018343
      py      :     0.042870

  6 H s       :     0.766249  s :     0.766249
      pz      :     0.032112  p :     0.113892
      px      :     0.049025
      py      :     0.032756

  7 H s       :     0.766282  s :     0.766282
      pz      :     0.032027  p :     0.113885
      px      :     0.048142
      py      :     0.033716

  8 H s       :     0.764000  s :     0.764000
      pz      :     0.052947  p :     0.114154
      px      :     0.042863
      py      :     0.018344

  9 H s       :     0.766246  s :     0.766246
      pz      :     0.032098  p :     0.113891
      px      :     0.033726
      py      :     0.048067

 10 H s       :     0.766281  s :     0.766281
      pz      :     0.032037  p :     0.113887
      px      :     0.032750
      py      :     0.049099

 11 H s       :     0.763992  s :     0.763992
      pz      :     0.052905  p :     0.114153
      px      :     0.018346
      py      :     0.042903

 12 H s       :     0.766278  s :     0.766278
      pz      :     0.032047  p :     0.113893
      px      :     0.048115
      py      :     0.033731

 13 H s       :     0.766301  s :     0.766301
      pz      :     0.032133  p :     0.113887
      px      :     0.049035
      py      :     0.032719

 14 H s       :     0.763995  s :     0.763995
      pz      :     0.052912  p :     0.114154
      px      :     0.042900
      py      :     0.018341

 15 H s       :     0.766276  s :     0.766276
      pz      :     0.032065  p :     0.113894
      px      :     0.032765
      py      :     0.049064

 16 H s       :     0.766300  s :     0.766300
      pz      :     0.032110  p :     0.113885
      px      :     0.033686
      py      :     0.048089


SPIN
  0 Cus       :    -0.010470  s :    -0.010470
      pz      :     0.011643  p :     0.002507
      px      :    -0.004568
      py      :    -0.004568
      dz2     :     0.002819  d :     0.550255
      dxz     :     0.000446
      dyz     :     0.000446
      dx2y2   :     0.545244
      dxy     :     0.001301
      f0      :     0.000008  f :     0.000019
      f+1     :     0.000004
      f-1     :     0.000004
      f+2     :     0.000000
      f-2     :     0.000000
      f+3     :     0.000001
      f-3     :     0.000001

  1 N s       :     0.016434  s :     0.016434
      pz      :     0.005442  p :     0.092903
      px      :     0.002120
      py      :     0.085341
      dz2     :     0.000044  d :    -0.000300
      dxz     :    -0.000101
      dyz     :    -0.000115
      dx2y2   :     0.000011
      dxy     :    -0.000139

  2 N s       :     0.016434  s :     0.016434
      pz      :     0.005438  p :     0.092910
      px      :     0.085351
      py      :     0.002122
      dz2     :     0.000044  d :    -0.000300
      dxz     :    -0.000115
      dyz     :    -0.000101
      dx2y2   :     0.000011
      dxy     :    -0.000139

  3 N s       :     0.016419  s :     0.016419
      pz      :     0.005460  p :     0.092821
      px      :     0.002123
      py      :     0.085238
      dz2     :     0.000044  d :    -0.000300
      dxz     :    -0.000101
      dyz     :    -0.000115
      dx2y2   :     0.000011
      dxy     :    -0.000139

  4 N s       :     0.016419  s :     0.016419
      pz      :     0.005455  p :     0.092828
      px      :     0.085256
      py      :     0.002117
      dz2     :     0.000044  d :    -0.000300
      dxz     :    -0.000115
      dyz     :    -0.000101
      dx2y2   :     0.000011
      dxy     :    -0.000139

  5 H s       :    -0.001998  s :    -0.001998
      pz      :     0.000479  p :     0.002766
      px      :     0.000015
      py      :     0.002272

  6 H s       :    -0.000484  s :    -0.000484
      pz      :     0.000117  p :     0.002819
      px      :     0.000260
      py      :     0.002442

  7 H s       :    -0.000488  s :    -0.000488
      pz      :     0.000117  p :     0.002819
      px      :     0.000288
      py      :     0.002414

  8 H s       :    -0.001998  s :    -0.001998
      pz      :     0.000479  p :     0.002766
      px      :     0.002273
      py      :     0.000015

  9 H s       :    -0.000482  s :    -0.000482
      pz      :     0.000117  p :     0.002819
      px      :     0.002414
      py      :     0.000288

 10 H s       :    -0.000491  s :    -0.000491
      pz      :     0.000117  p :     0.002819
      px      :     0.002442
      py      :     0.000260

 11 H s       :    -0.001994  s :    -0.001994
      pz      :     0.000480  p :     0.002765
      px      :     0.000015
      py      :     0.002270

 12 H s       :    -0.000485  s :    -0.000485
      pz      :     0.000117  p :     0.002817
      px      :     0.000289
      py      :     0.002411

 13 H s       :    -0.000494  s :    -0.000494
      pz      :     0.000117  p :     0.002817
      px      :     0.000259
      py      :     0.002440

 14 H s       :    -0.001993  s :    -0.001993
      pz      :     0.000480  p :     0.002765
      px      :     0.002270
      py      :     0.000015

 15 H s       :    -0.000487  s :    -0.000487
      pz      :     0.000117  p :     0.002817
      px      :     0.002439
      py      :     0.000261

 16 H s       :    -0.000492  s :    -0.000492
      pz      :     0.000117  p :     0.002817
      px      :     0.002413
      py      :     0.000287



                      *****************************
                      * MAYER POPULATION ANALYSIS *
                      *****************************

  NA   - Mulliken gross atomic population
  ZA   - Total nuclear charge
  QA   - Mulliken gross atomic charge
  VA   - Mayer's total valence
  BVA  - Mayer's bonded valence
  FA   - Mayer's free valence

  ATOM       NA         ZA         QA         VA         BVA        FA
  0 Cu    28.5485    29.0000     0.4515     2.6973     2.3881     0.3092
  1 N      7.1797     7.0000    -0.1797     3.4907     3.4781     0.0126
  2 N      7.1797     7.0000    -0.1797     3.4907     3.4781     0.0126
  3 N      7.1798     7.0000    -0.1798     3.4905     3.4779     0.0126
  4 N      7.1798     7.0000    -0.1798     3.4905     3.4779     0.0126
  5 H      0.8078     1.0000     0.1922     0.9729     0.9728     0.0000
  6 H      0.8126     1.0000     0.1874     0.9779     0.9779     0.0000
  7 H      0.8127     1.0000     0.1873     0.9779     0.9779     0.0000
  8 H      0.8078     1.0000     0.1922     0.9729     0.9728     0.0000
  9 H      0.8126     1.0000     0.1874     0.9779     0.9779     0.0000
 10 H      0.8127     1.0000     0.1873     0.9779     0.9779     0.0000
 11 H      0.8078     1.0000     0.1922     0.9729     0.9729     0.0000
 12 H      0.8126     1.0000     0.1874     0.9779     0.9779     0.0000
 13 H      0.8127     1.0000     0.1873     0.9779     0.9779     0.0000
 14 H      0.8078     1.0000     0.1922     0.9729     0.9729     0.0000
 15 H      0.8126     1.0000     0.1874     0.9779     0.9779     0.0000
 16 H      0.8127     1.0000     0.1873     0.9779     0.9779     0.0000

  Mayer bond orders larger than 0.100000
B(  0-Cu,  1-N ) :   0.5748 B(  0-Cu,  2-N ) :   0.5748 B(  0-Cu,  3-N ) :   0.5746 
B(  0-Cu,  4-N ) :   0.5746 B(  1-N ,  5-H ) :   0.9507 B(  1-N ,  6-H ) :   0.9515 
B(  1-N ,  7-H ) :   0.9515 B(  2-N ,  8-H ) :   0.9507 B(  2-N ,  9-H ) :   0.9515 
B(  2-N , 10-H ) :   0.9515 B(  3-N , 11-H ) :   0.9507 B(  3-N , 12-H ) :   0.9515 
B(  3-N , 13-H ) :   0.9515 B(  4-N , 14-H ) :   0.9507 B(  4-N , 15-H ) :   0.9515 
B(  4-N , 16-H ) :   0.9515 

-------
TIMINGS
-------

Total SCF time: 0 days 0 hours 0 min 19 sec 

Total time                  ....      19.528 sec
Sum of individual times     ....      18.729 sec  ( 95.9%)

SCF preparation             ....       1.348 sec  (  6.9%)
Fock matrix formation       ....      14.904 sec  ( 76.3%)
  Startup                   ....       0.106 sec  (  0.7% of F)
  Split-RI-J                ....       2.675 sec  ( 17.9% of F)
  XC integration            ....      12.022 sec  ( 80.7% of F)
    Basis function eval.    ....       2.849 sec  ( 23.7% of XC)
    Density eval.           ....       2.163 sec  ( 18.0% of XC)
    XC-Functional eval.     ....       0.431 sec  (  3.6% of XC)
    XC-Potential eval.      ....       3.110 sec  ( 25.9% of XC)
Diagonalization             ....       0.000 sec  (  0.0%)
Density matrix formation    ....       0.239 sec  (  1.2%)
Total Energy calculation    ....       0.486 sec  (  2.5%)
Population analysis         ....       0.178 sec  (  0.9%)
Orbital Transformation      ....       0.229 sec  (  1.2%)
Orbital Orthonormalization  ....       0.000 sec  (  0.0%)
DIIS solution               ....       0.065 sec  (  0.3%)
SOSCF solution              ....       1.280 sec  (  6.6%)
Finished LeanSCF after  19.7 sec

Maximum memory used throughout the entire LEANSCF-calculation: 18.1 MB

-------------------------   --------------------
FINAL SINGLE POINT ENERGY     -1865.329714821461
-------------------------   --------------------

                                *** OPTIMIZATION RUN DONE ***


------------------------------------------------------------------------------
                              ORCA PROPERTY CALCULATIONS
------------------------------------------------------------------------------

GBWName                                 ... file_input.gbw
Number of atoms                         ...     17
Number of basis functions               ...    147
Max core memory                         ...   1024 MB

Electric properties:
Dipole moment                           ... YES
Quadrupole moment                       ...  NO
Static polarizability (Dipole/Dipole)   ...  NO
Static polarizability (Dipole/Quad.)    ...  NO
Static polarizability (Quad./Quad.)     ...  NO
Static polarizability (Velocity)        ...  NO

Atomic electric properties:
Dipole moment                           ...  NO
Quadrupole moment                       ...  NO
Static polarizability                   ...  NO

Choice of electric origin               ... Center of mass
Position of electric origin             ...    -0.386437     0.816506     0.000153

General magnetic properties:
Magnetizability                         ...  NO

EPR properties:
g-Tensor (aka g-matrix)                 ...  NO
Zero-Field splitting spin-orbit         ...  NO
Zero-field splitting spin-spin          ...  NO
Hyperfine couplings                     ...  NO (   0 nuclei)
Quadrupole couplings                    ...  NO (   0 nuclei)
Contact density                         ...  NO (   0 nuclei)

NMR properties:
Chemical shifts                         ...  NO (   0 nuclei)
Spin-rotation constants                 ...  NO (   0 nuclei)
Spin-spin couplings                     ...  NO (   0 nuclei,    0 pairs)

Choice of magnetic origin               ... GIAO
Position of magnetic origin             ...     0.000000     0.000000     0.000000

Properties with geometric perturbations:
SCF Hessian                             ...  NO
IR spectrum                             ...  NO
VCD spectrum                            ...  NO
X-ray spectroscopy properties:
SCF XES/XAS/RIXS spectra                ...  NO


-------------
DIPOLE MOMENT
-------------

Method             : SCF
Type of density    : Electron Density
Multiplicity       :   2
Irrep              :   0
Energy             : -1865.3297148214605841 Eh
Relativity type    : 
Basis              : AO
                                X                 Y                 Z
Electronic contribution:     -0.002970490       0.002886682       0.001285694
Nuclear contribution   :      0.003925232      -0.003803938      -0.001547534
                        -----------------------------------------
Total Dipole Moment    :      0.000954742      -0.000917256      -0.000261840
                        -----------------------------------------
Magnitude (a.u.)       :      0.001349611
Magnitude (Debye)      :      0.003430439



--------------------
Rotational spectrum 
--------------------
 
Rotational constants in cm-1:             0.099322             0.099311             0.053800 
Rotational constants in MHz :          2977.589979          2977.263144          1612.894092 

Dipole components along the rotational axes: 
x,y,z [a.u.] :     0.001260    -0.000407    -0.000262 
x,y,z [Debye]:     0.003202    -0.001034    -0.000665 

 

Dipole moment calculation done in   0.1 sec 

Maximum memory used throughout the entire PROP-calculation: 10.3 MB

--------------------------------
SUGGESTED CITATIONS FOR THIS RUN
--------------------------------

Below you find a list of papers that are relevant to this ORCA run
We neither can nor want to force you to cite these papers, but we appreciate if you do
You receive ORCA, which is the product of decades of hard work by many enthusiastic individuals, for free
The only thing we kindly ask in return is that you cite our papers,
We deeply appreciate it, if you show your appreciation for ORCA by not just citing the generic ORCA reference.

Please note that relegating all ORCA citations to the supporting information does *not* help us.
SI sections are not indexed - citations you put there will not count into any citation statistics
But we need these citations in order to attract the funding resources that allow us to do what we are doing

Therefore, if you are a happy ORCA user, please consider citing a few of the papers listed below in the main body of your paper

In addition to the list printed below, the program has created the file file_input.bibtex that contains the list in bibtex format
You can import this file easily into all common literature databanks and citation aid programs


List of essential papers. We consider these as the minimum necessary citations

  1. Neese,F.
     Software update: the ORCA program system, version 5.0
     WIRES Comput. Molec. Sci., 2022 12(1)e1606
     doi.org/10.1002/wcms.1606

List of papers to cite with high priority. The work reported in these papers was absolutely
necessary for this run to complete.
Our perspective: the developers of density functionals and basis sets usually get cited in chemistry papers
Good! But without the algorithms to do something with them, the functionals or basis sets would not do anything.
Hence, in our opinion, the algorithm design and method developments papers are equally worthy of getting cited

  1. Neese,F.
     An improvement of the resolution of the identity approximation for the formation of the Coulomb matrix
     J. Comp. Chem., 2003 24(14)1740-1747
     doi.org/10.1002/jcc.10318
  2. Neese,F.
     The SHARK Integral Generation and Digestion System
     J. Comp. Chem., 2022  1-16
     doi.org/10.1002/jcc.26942

List of suggested additional citations. These are papers that are important in the 'surrounding' of 
of this run, or papers that preceded the highly important papers. If you like your results we are grateful for a citation.

  1. Neese,F.
     The ORCA program system
     WIRES Comput. Molec. Sci., 2012 2(1)73-78
     doi.org/10.1002/wcms.81
  2. Neese,F.
     Software update: the ORCA program system, version 4.0
     WIRES Comput. Molec. Sci., 2018 8(1)1-6
     doi.org/10.1002/wcms.1327
  3. Neese,F.; Wennmohs,F.; Becker,U.; Riplinger,C.
     The ORCA quantum chemistry program package
     J. Chem. Phys., 2020 152 Art. No. L224108
     doi.org/10.1063/5.0004608

List of optional additional citations

  1. Neese,F.
     Approximate second-order SCF convergence for spin unrestricted wavefunctions
     Chem. Phys. Lett., 2000 325(1-3)93-98
     doi.org/10.1016/s0009-2614(00)00662-x

Timings for individual modules:

Sum of individual times          ...      691.202 sec (=  11.520 min)
Startup calculation              ...       50.305 sec (=   0.838 min)   7.3 %
SCF iterations                   ...      414.421 sec (=   6.907 min)  60.0 %
Property calculations            ...        0.561 sec (=   0.009 min)   0.1 %
SCF Gradient evaluation          ...      225.149 sec (=   3.752 min)  32.6 %
Geometry relaxation              ...        0.766 sec (=   0.013 min)   0.1 %
                             ****ORCA TERMINATED NORMALLY****
TOTAL RUN TIME: 0 days 0 hours 11 minutes 34 seconds 255 msec
