
                                 *****************
                                 * O   R   C   A *
                                 *****************

                                            #,                                       
                                            ###                                      
                                            ####                                     
                                            #####                                    
                                            ######                                   
                                           ########,                                 
                                     ,,################,,,,,                         
                               ,,#################################,,                 
                          ,,##########################################,,             
                       ,#########################################, ''#####,          
                    ,#############################################,,   '####,        
                  ,##################################################,,,,####,       
                ,###########''''           ''''###############################       
              ,#####''   ,,,,##########,,,,          '''####'''          '####       
            ,##' ,,,,###########################,,,                        '##       
           ' ,,###''''                  '''############,,,                           
         ,,##''                                '''############,,,,        ,,,,,,###''
      ,#''                                            '''#######################'''  
     '                                                          ''''####''''         
             ,#######,   #######,   ,#######,      ##                                
            ,#'     '#,  ##    ##  ,#'     '#,    #''#        ,####,   ,####,        
            ##       ##  ##   ,#'  ##            #'  '#       #'       #'  '#        
            ##       ##  #######   ##           ,######,      #####,   #    #        
            '#,     ,#'  ##    ##  '#,     ,#' ,#      #,     #,   #   #,  ,#        
             '#######'   ##     ##  '#######'  #'      '#     '####' # '####'        



                #########################################################
                #                        -***-                          #
                #          Department of theory and spectroscopy        #
                #                                                       #
                #                      Frank Neese                      #
                #                                                       #
                #     Directorship, Architecture, Infrastructure        #
                #                    SHARK, DRIVERS                     #
                #        Core code/Algorithms in most modules           #
                #                                                       #
                #        Max Planck Institute fuer Kohlenforschung      #
                #                Kaiser Wilhelm Platz 1                 #
                #                 D-45470 Muelheim/Ruhr                 #
                #                      Germany                          #
                #                                                       #
                #                  All rights reserved                  #
                #                        -***-                          #
                #########################################################


                         Program Version 6.0.0  -   RELEASE   -


 With contributions from (in alphabetic order):
   Daniel Aravena         : Magnetic Suceptibility
   Michael Atanasov       : Ab Initio Ligand Field Theory (pilot matlab implementation)
   Alexander A. Auer      : GIAO ZORA, VPT2 properties, NMR spectrum
   Ute Becker             : All parallelization in ORCA, NUMFREQ, NUMCALC
   Giovanni Bistoni       : ED, misc. LED, open-shell LED, HFLD
   Martin Brehm           : Molecular dynamics
   Dmytro Bykov           : pre 5.0 version of the SCF Hessian
   Marcos Casanova-Páez   : Triplet and SCS-CIS(D). UHF-(DLPNO)-IP/EA/STEOM-CCSD. UHF-CVS-IP/STEOM-CCSD
   Vijay G. Chilkuri      : MRCI spin determinant printing, contributions to CSF-ICE
   Pauline Colinet        : FMM embedding
   Dipayan Datta          : RHF DLPNO-CCSD density
   Achintya Kumar Dutta   : EOM-CC, STEOM-CC
   Nicolas Foglia         : Exact transition moments, OPA infrastructure, MCD improvements
   Dmitry Ganyushin       : Spin-Orbit,Spin-Spin,Magnetic field MRCI
   Miquel Garcia          : C-PCM and meta-GGA Hessian, CCSD/C-PCM, Gaussian charge scheme
   Tiago L. C. Gouveia    : GS-ROHF, GS-ROCIS
   Yang Guo               : DLPNO-NEVPT2, F12-NEVPT2, CIM, IAO-localization
   Andreas Hansen         : Spin unrestricted coupled pair/coupled cluster methods
   Ingolf Harden          : AUTO-CI MPn and infrastructure 
   Benjamin Helmich-Paris : MC-RPA, TRAH-(SCF,CASSCF), AVAS, COSX integrals, SCF dyn. polar.
   Lee Huntington         : MR-EOM, pCC
   Robert Izsak           : Overlap fitted RIJCOSX, COSX-SCS-MP3, EOM
   Riya Kayal             : Wick's Theorem for AUTO-CI, AUTO-CI UHF-CCSDT
   Emily Kempfer          : AUTO-CI, RHF CISDT and CCSDT
   Christian Kollmar      : KDIIS, OOCD, Brueckner-CCSD(T), CCSD density, CASPT2, CASPT2-K, improved NEVPT2
   Axel Koslowski         : Symmetry handling
   Simone Kossmann        : Meta GGA functionals, TD-DFT gradient, OOMP2, (MP2 Hessian; deprecated post 5.0)
   Lucas Lang             : DCDCAS
   Marvin Lechner         : AUTO-CI (C++ implementation), FIC-MRCC
   Spencer Leger          : CASSCF response
   Dagmar Lenk            : GEPOL surface, SMD, ORCA-2-JSON
   Dimitrios Liakos       : Extrapolation schemes; Compound Job, initial MDCI parallelization
   Dimitrios Manganas     : Further ROCIS development; embedding schemes. LFT, Crystal Embedding
   Dimitrios Pantazis     : SARC Basis sets
   Anastasios Papadopoulos: AUTO-CI, single reference methods and gradients
   Taras Petrenko         : pre 6.0 DFT Hessian and TD-DFT gradient, (ASA, deprecated), ECA, 1-Electron XAS/XES, NRVS
   Peter Pinski           : DLPNO-MP2, DLPNO-MP2 Gradient
   Christoph Reimann      : Effective Core Potentials
   Marius Retegan         : Local ZFS, SOC
   Christoph Riplinger    : Optimizer, TS searches, QM/MM, DLPNO-CCSD(T), (RO)-DLPNO pert. Triples
   Michael Roemelt        : Original ROCIS implementation
   Masaaki Saitow         : Open-shell DLPNO-CCSD energy and density
   Barbara Sandhoefer     : DKH picture change effects
   Kantharuban Sivalingam : CASSCF convergence/infrastructure, NEVPT2 and variants, FIC-MRCI
   Bernardo de Souza      : ESD, SOC TD-DFT
   Georgi Stoychev        : AutoAux, RI-MP2 NMR, DLPNO-MP2 response, X2C
   Van Anh Tran           : RI-MP2 g-tensors
   Willem Van den Heuvel  : Paramagnetic NMR
   Zikuan Wang            : NOTCH, Electric field optimization 
   Frank Wennmohs         : Technical directorship and infrastructure
   Hang Xu                : AUTO-CI-Response properties 


 We gratefully acknowledge several colleagues who have allowed us to
 interface, adapt or use parts of their codes:
   Stefan Grimme, W. Hujo, H. Kruse, P. Pracht,  : VdW corrections, initial TS optimization,
                  C. Bannwarth, S. Ehlert,         DFT functionals, gCP, sTDA/sTD-DF
                  L. Wittmann, M. Mueller
   Ed Valeev, F. Pavosevic, A. Kumar             : LibInt (2-el integral package), F12 methods
   Garnet Chan, S. Sharma, J. Yang, R. Olivares  : DMRG
   Ulf Ekstrom                                   : XCFun DFT Library
   Mihaly Kallay                                 : mrcc  (arbitrary order and MRCC methods)
   Frank Weinhold                                : gennbo (NPA and NBO analysis)
   Simon Mueller                                 : openCOSMO-RS
   Christopher J. Cramer and Donald G. Truhlar   : smd solvation model
   Lars Goerigk                                  : TD-DFT with DH, B97 family of functionals
   V. Asgeirsson, H. Jonsson                     : NEB implementation
   FAccTs GmbH                                   : IRC, NEB, NEB-TS, DLPNO-Multilevel, CI-OPT
                                                   MM, QMMM, 2- and 3-layer-ONIOM, Crystal-QMMM,
                                                   LR-CPCM, SF, NACMEs, symmetry and pop. for TD-DFT,
                                                   nearIR, NL-DFT gradient (VV10), updates on ESD,
                                                   ML-optimized integration grids, MBIS, APM,
                                                   GOAT, DOCKER, SOLVATOR, interface openCOSMO-RS
   S Lehtola, MJT Oliveira, MAL Marques          : LibXC Library
   Liviu Ungur et al                             : ANISO software


 Your calculation uses the libint2 library for the computation of 2-el integrals
 For citations please refer to: http://libint.valeyev.net

 Your ORCA version has been built with support for libXC version: 6.2.2
 For citations please refer to: https://libxc.gitlab.io

 This ORCA versions uses:
   CBLAS   interface :  Fast vector & matrix operations
   LAPACKE interface :  Fast linear algebra routines
   Shared memory     :  Shared parallel matrices


Warning: RI is on but no J-basis has been assigned. Assigning Def2/J (nothing to worry about!)
================================================================================

----- Orbital basis set information -----
Your calculation utilizes the basis: def2-SVP
   F. Weigend and R. Ahlrichs, Phys. Chem. Chem. Phys. 7, 3297 (2005).

----- AuxJ basis set information -----
Your calculation utilizes the auxiliary basis: def2/J
   F. Weigend, Phys. Chem. Chem. Phys. 8, 1057 (2006).

================================================================================
                                        WARNINGS
                       Please study these warnings very carefully!
================================================================================


WARNING: your system is open-shell and RHF/RKS was chosen
  ===> : WILL SWITCH to UHF/UKS


================================================================================
                                       INPUT FILE
================================================================================
NAME = file_input.inp
|  1> # optimasi triazine
|  2> # baris kode yang diawali tagar tidak akan dieksekusi
|  3> ! PBE def2-SVP freq SP
|  4> * xyz 2 2
|  5>   Cu         -0.20460008005441      0.43218027400908      0.00016292782573
|  6>   N          -0.24458974571855      2.47969359585069     -0.32309708191488
|  7>   N          -2.25217544941240      0.39210769314343      0.32318159791095
|  8>   N          -0.16444666455911     -1.61578800459621     -0.32308826445427
|  9>   N           1.84346168607796      0.47206966873791      0.32304288919787
| 10>   H          -0.25566092006678      3.04135531480934      0.54679824452548
| 11>   H          -1.07055063962565      2.78845725171347     -0.86429022115993
| 12>   H           0.56980116090773      2.82042787265361     -0.86268316876183
| 13>   H          -2.81369547217601      0.38076690527887     -0.54680043414375
| 14>   H          -2.59341594695398      1.20536713532680      0.86410896498554
| 15>   H          -2.56053055723227     -0.43495865531866      0.86296020598164
| 16>   H          -0.15119799529436     -2.17818794223373      0.54629594489315
| 17>   H          -0.97836694234652     -1.95719437539440     -0.86290125651054
| 18>   H           0.66183170394423     -1.92297918588761     -0.86475888330735
| 19>   H           2.40578318438072      0.48148261847811     -0.54643890740706
| 20>   H           2.15249777822645      1.29858033629233      0.86322708265146
| 21>   H           2.18317489990293     -0.34168050286303      0.86426035968779
| 22> *
| 23> 
| 24> 
| 25>                          ****END OF INPUT****
================================================================================

                       ****************************
                       * Single Point Calculation *
                       ****************************

---------------------------------
CARTESIAN COORDINATES (ANGSTROEM)
---------------------------------
  Cu    -0.204600    0.432180    0.000163
  N     -0.244590    2.479694   -0.323097
  N     -2.252175    0.392108    0.323182
  N     -0.164447   -1.615788   -0.323088
  N      1.843462    0.472070    0.323043
  H     -0.255661    3.041355    0.546798
  H     -1.070551    2.788457   -0.864290
  H      0.569801    2.820428   -0.862683
  H     -2.813695    0.380767   -0.546800
  H     -2.593416    1.205367    0.864109
  H     -2.560531   -0.434959    0.862960
  H     -0.151198   -2.178188    0.546296
  H     -0.978367   -1.957194   -0.862901
  H      0.661832   -1.922979   -0.864759
  H      2.405783    0.481483   -0.546439
  H      2.152498    1.298580    0.863227
  H      2.183175   -0.341681    0.864260

----------------------------
CARTESIAN COORDINATES (A.U.)
----------------------------
  NO LB      ZA    FRAG     MASS         X           Y           Z
   0 Cu   29.0000    0    63.550   -0.386638    0.816702    0.000308
   1 N     7.0000    0    14.007   -0.462208    4.685942   -0.610565
   2 N     7.0000    0    14.007   -4.255995    0.740976    0.610725
   3 N     7.0000    0    14.007   -0.310759   -3.053397   -0.610548
   4 N     7.0000    0    14.007    3.483638    0.892082    0.610463
   5 H     1.0000    0     1.008   -0.483129    5.747329    1.033299
   6 H     1.0000    0     1.008   -2.023048    5.269421   -1.633272
   7 H     1.0000    0     1.008    1.076768    5.329836   -1.630235
   8 H     1.0000    0     1.008   -5.317114    0.719545   -1.033303
   9 H     1.0000    0     1.008   -4.900846    2.277814    1.632929
  10 H     1.0000    0     1.008   -4.838702   -0.821953    1.630758
  11 H     1.0000    0     1.008   -0.285723   -4.116179    1.032350
  12 H     1.0000    0     1.008   -1.848846   -3.698561   -1.630647
  13 H     1.0000    0     1.008    1.250681   -3.633904   -1.634157
  14 H     1.0000    0     1.008    4.546271    0.909870   -1.032620
  15 H     1.0000    0     1.008    4.067631    2.453961    1.631263
  16 H     1.0000    0     1.008    4.125603   -0.645683    1.633215

--------------------------------
INTERNAL COORDINATES (ANGSTROEM)
--------------------------------
 Cu     0   0   0     0.000000000000     0.00000000     0.00000000
 N      1   0   0     2.073259995846     0.00000000     0.00000000
 N      1   2   0     2.073285259235    91.39420775     0.00000000
 N      1   2   3     2.073711093730   162.06204970    98.86888878
 N      1   2   3     2.073740492723    91.39410306   197.70407718
 H      2   1   3     1.035521287279   113.88393949    81.13886392
 H      2   1   3     1.034618967259   113.05926991   320.59092196
 H      2   1   3     1.034642711907   113.03965809   201.58324840
 H      3   1   2     1.035520200446   113.88185824    81.15931498
 H      3   1   2     1.034619936940   113.07875478   320.59873360
 H      3   1   2     1.034641272620   113.02094273   201.59145430
 H      4   1   2     1.035518285959   113.93772798   179.85162139
 H      4   1   2     1.034612292121   113.07819076   300.44499149
 H      4   1   2     1.034654253095   112.97240862    59.40454411
 H      5   1   2     1.035515652080   113.93821035   278.76880057
 H      5   1   2     1.034612078360   113.05769815    39.34993026
 H      5   1   2     1.034654898887   112.99091901   158.30702430

---------------------------
INTERNAL COORDINATES (A.U.)
---------------------------
 Cu     0   0   0     0.000000000000     0.00000000     0.00000000
 N      1   0   0     3.917893596564     0.00000000     0.00000000
 N      1   2   0     3.917941337451    91.39420775     0.00000000
 N      1   2   3     3.918746048024   162.06204970    98.86888878
 N      1   2   3     3.918801604070    91.39410306   197.70407718
 H      2   1   3     1.956851638803   113.88393949    81.13886392
 H      2   1   3     1.955146501079   113.05926991   320.59092196
 H      2   1   3     1.955191371962   113.03965809   201.58324840
 H      3   1   2     1.956849584986   113.88185824    81.15931498
 H      3   1   2     1.955148333511   113.07875478   320.59873360
 H      3   1   2     1.955188652103   113.02094273   201.59145430
 H      4   1   2     1.956845967129   113.93772798   179.85162139
 H      4   1   2     1.955133886897   113.07819076   300.44499149
 H      4   1   2     1.955213181647   112.97240862    59.40454411
 H      5   1   2     1.956840989821   113.93821035   278.76880057
 H      5   1   2     1.955133482948   113.05769815    39.34993026
 H      5   1   2     1.955214402017   112.99091901   158.30702430

---------------------
BASIS SET INFORMATION
---------------------
There are 3 groups of distinct atoms

 Group   1 Type Cu  : 14s9p5d1f contracted to 5s3p2d1f pattern {63311/531/41/1}
 Group   2 Type N   : 7s4p1d contracted to 3s2p1d pattern {511/31/1}
 Group   3 Type H   : 4s1p contracted to 2s1p pattern {31/1}

Atom   0Cu   basis set group =>   1
Atom   1N    basis set group =>   2
Atom   2N    basis set group =>   2
Atom   3N    basis set group =>   2
Atom   4N    basis set group =>   2
Atom   5H    basis set group =>   3
Atom   6H    basis set group =>   3
Atom   7H    basis set group =>   3
Atom   8H    basis set group =>   3
Atom   9H    basis set group =>   3
Atom  10H    basis set group =>   3
Atom  11H    basis set group =>   3
Atom  12H    basis set group =>   3
Atom  13H    basis set group =>   3
Atom  14H    basis set group =>   3
Atom  15H    basis set group =>   3
Atom  16H    basis set group =>   3
---------------------------------
AUXILIARY/J BASIS SET INFORMATION
---------------------------------
There are 3 groups of distinct atoms

 Group   1 Type Cu  : 19s5p5d3f3g contracted to 8s5p4d3f3g pattern {121111111/11111/2111/111/111}
 Group   2 Type N   : 12s5p4d2f1g contracted to 6s4p3d1f1g pattern {711111/2111/211/2/1}
 Group   3 Type H   : 5s2p1d contracted to 3s1p1d pattern {311/2/1}

Atom   0Cu   basis set group =>   1
Atom   1N    basis set group =>   2
Atom   2N    basis set group =>   2
Atom   3N    basis set group =>   2
Atom   4N    basis set group =>   2
Atom   5H    basis set group =>   3
Atom   6H    basis set group =>   3
Atom   7H    basis set group =>   3
Atom   8H    basis set group =>   3
Atom   9H    basis set group =>   3
Atom  10H    basis set group =>   3
Atom  11H    basis set group =>   3
Atom  12H    basis set group =>   3
Atom  13H    basis set group =>   3
Atom  14H    basis set group =>   3
Atom  15H    basis set group =>   3
Atom  16H    basis set group =>   3
------------------------------------------------------------------------------
                             ORCA STARTUP CALCULATIONS
                           -- RI-GTO INTEGRALS CHOSEN --
------------------------------------------------------------------------------
------------------------------------------------------------------------------
                   ___                                                        
                  /   \      - P O W E R E D   B Y -                         
                 /     \                                                     
                 |  |  |   _    _      __       _____    __    __             
                 |  |  |  | |  | |    /  \     |  _  \  |  |  /  |          
                  \  \/   | |  | |   /    \    | | | |  |  | /  /          
                 / \  \   | |__| |  /  /\  \   | |_| |  |  |/  /          
                |  |  |   |  __  | /  /__\  \  |    /   |      \           
                |  |  |   | |  | | |   __   |  |    \   |  |\   \          
                \     /   | |  | | |  |  |  |  | |\  \  |  | \   \       
                 \___/    |_|  |_| |__|  |__|  |_| \__\ |__|  \__/        
                                                                              
                      - O R C A' S   B I G   F R I E N D -                    
                                      &                                       
                       - I N T E G R A L  F E E D E R -                       
                                                                              
 v1 FN, 2020, v2 2021, v3 2022-2024                                           
------------------------------------------------------------------------------


----------------------
SHARK INTEGRAL PACKAGE
----------------------

Number of atoms                             ...     17
Number of basis functions                   ...    147
Number of shells                            ...     71
Maximum angular momentum                    ...      3
Integral batch strategy                     ... SHARK/LIBINT Hybrid
RI-J (if used) integral strategy            ... SPLIT-RIJ (Revised 2003 algorithm where possible)
Printlevel                                  ...      1
Contraction scheme used                     ... SEGMENTED contraction
Prescreening option                         ... SCHWARTZ
   Thresh                                   ... 1.000e-10
   Tcut                                     ... 1.000e-11
   Tpresel                                  ... 1.000e-11 
Coulomb Range Separation                    ... NOT USED
Exchange Range Separation                   ... NOT USED
Multipole approximations                    ... NOT USED
Finite Nucleus Model                        ... NOT USED
CABS basis                                  ... NOT available
Auxiliary Coulomb fitting basis             ... AVAILABLE
   # of basis functions in Aux-J            ...    419
   # of shells in Aux-J                     ...    143
   Maximum angular momentum in Aux-J        ...      4
Auxiliary J/K fitting basis                 ... NOT available
Auxiliary Correlation fitting basis         ... NOT available
Auxiliary 'external' fitting basis          ... NOT available

Checking pre-screening integrals            ... done (  0.0 sec) Dimension = 71
Check shell pair data                       ... done (  0.0 sec)
Shell pair information
Shell pair cut-off parameter TPreSel        ...   1.0e-11
Total number of shell pairs                 ...      2556
Shell pairs after pre-screening             ...      2420
Total number of primitive shell pairs       ...      9581
Primitive shell pairs kept                  ...      6575
          la=0 lb=0:    831 shell pairs
          la=1 lb=0:    887 shell pairs
          la=1 lb=1:    242 shell pairs
          la=2 lb=0:    242 shell pairs
          la=2 lb=1:    126 shell pairs
          la=2 lb=2:     21 shell pairs
          la=3 lb=0:     41 shell pairs
          la=3 lb=1:     23 shell pairs
          la=3 lb=2:      6 shell pairs
          la=3 lb=3:      1 shell pairs

Calculating one electron integrals          ... done (  0.0 sec)
Calculating RI/J V-Matrix + Cholesky decomp.... done (  0.0 sec)
Calculating Nuclear repulsion               ... done (  0.0 sec) ENN=    414.332201643529 Eh

Diagonalization of the overlap matrix:
Smallest eigenvalue                        ... 1.537e-02
Time for diagonalization                   ...    0.007 sec
Threshold for overlap eigenvalues          ... 1.000e-07
Number of eigenvalues below threshold      ... 0
Time for construction of square roots      ...    0.005 sec
Total time needed                          ...    0.013 sec

-------------------
DFT GRID GENERATION
-------------------

General Integration Accuracy     IntAcc      ... 4.388
Radial Grid Type                 RadialGrid  ... OptM3 with GC (2021)
Angular Grid (max. ang.)         AngularGrid ... 4 (Lebedev-302)
Angular grid pruning method      GridPruning ... 4 (adaptive)
Weight generation scheme         WeightScheme... mBecke (2022)
Basis function cutoff            BFCut       ... 1.0000e-10
Integration weight cutoff        WCut        ... 1.0000e-14
Partially contracted basis set               ... off
Rotationally invariant grid construction     ... off
Angular grids for H and He will be reduced by one unit
Core-polarized basis detected: some atoms will have their core
                               angular grid increased.

Total number of grid points                  ...    74103
Total number of batches                      ...     1165
Average number of points per batch           ...       63
Average number of grid points per atom       ...     4359
Initializing property integral containers    ... done (  0.0 sec)

SHARK setup successfully completed in   2.3 seconds

Maximum memory used throughout the entire STARTUP-calculation: 32.7 MB
-------------------------------------------------------------------------------
                                 ORCA GUESS
                   Start orbitals & Density for SCF / CASSCF
-------------------------------------------------------------------------------

------------
SCF SETTINGS
------------
Hamiltonian:
 Density Functional     Method          .... DFT(GTOs)
 Exchange Functional    Exchange        .... PBE
   PBE kappa parameter   XKappa         ....  0.804000
   PBE mue parameter    XMuePBE         ....  0.219520
 Correlation Functional Correlation     .... PBE
   PBE beta parameter  CBetaPBE         ....  0.066725
 LDA part of GGA corr.  LDAOpt          .... PW91-LDA
 Gradients option       PostSCFGGA      .... off
   NL short-range parameter             ....  6.400000
 RI-approximation to the Coulomb term is turned on
   Number of AuxJ basis functions       .... 419


General Settings:
 Integral files         IntName         .... file_input
 Hartree-Fock type      HFTyp           .... UHF
 Total Charge           Charge          ....    2
 Multiplicity           Mult            ....    2
 Number of Electrons    NEL             ....   67
 Basis Dimension        Dim             ....  147
 Nuclear Repulsion      ENuc            ....    414.3322016435 Eh

Convergence Acceleration:
 AO-DIIS                CNVDIIS         .... on
   Start iteration      DIISMaxIt       ....    12
   Startup error        DIISStart       ....  0.200000
   # of expansion vecs  DIISMaxEq       ....     5
   Bias factor          DIISBfac        ....   1.050
   Max. coefficient     DIISMaxC        ....  10.000
 MO-DIIS                CNVKDIIS        .... off
 Trust-Rad. Augm. Hess. CNVTRAH         .... auto
   Auto Start mean grad. ratio tolernc. ....  1.125000
   Auto Start start iteration           ....    50
   Auto Start num. interpolation iter.  ....    10
   Max. Number of Micro iterations      ....    24
   Max. Number of Macro iterations      .... Maxiter - #DIIS iter
   Number of Davidson start vectors     ....     2
   Converg. threshold    (grad. norm)   ....   5.000e-05
   Grad. Scal. Fac. for Micro threshold ....   0.100
   Minimum threshold for Micro iter.    ....   1.000e-02
   NR start threshold (gradient norm)   ....   1.000e-04
   Initial trust radius                 ....   0.400
   Minimum AH scaling param. (alpha)    ....   1.000
   Maximum AH scaling param. (alpha)    .... 1000.000
   Quad. conv. algorithm                .... NR
   White noise on init. David. guess    .... on
   Maximum white noise                  ....   0.010
   Pseudo random numbers                .... off
   Inactive MOs                         .... canonical
   Orbital update algorithm             .... Taylor
   Preconditioner                       .... Diag
   Full preconditioner red. dimension   ....   250
 SOSCF                  CNVSOSCF        .... on
   Start iteration      SOSCFMaxIt      ....   150
   Startup grad/error   SOSCFStart      ....  0.003300
   Hessian update       SOSCFHessUp     .... L-BFGS
 Level Shifting         CNVShift        .... on
   Level shift para.    LevelShift      ....    0.2500
   Turn off err/grad.   ShiftErr        ....    0.0010
 Zerner damping         CNVZerner       .... off
 Static damping         CNVDamp         .... on
   Fraction old density DampFac         ....    0.7000
   Max. Damping (<1)    DampMax         ....    0.9800
   Min. Damping (>=0)   DampMin         ....    0.0000
   Turn off err/grad.   DampErr         ....    0.1000

SCF Procedure:
 Maximum # iterations   MaxIter         ....   125
 SCF integral mode      SCFMode         .... Direct
   Integral package                     .... SHARK and LIBINT hybrid scheme
 Reset frequency        DirectResetFreq ....    20
 Integral Threshold     Thresh          ....  1.000e-10 Eh
 Primitive CutOff       TCut            ....  1.000e-11 Eh

Convergence Tolerance:
 Convergence Check Mode ConvCheckMode   .... Total+1el-Energy
 Convergence forced     ConvForced      .... 0
 Energy Change          TolE            ....  1.000e-06 Eh
 1-El. energy change                    ....  1.000e-03 Eh
 Orbital Gradient       TolG            ....  5.000e-05
 Orbital Rotation angle TolX            ....  5.000e-05
 DIIS Error             TolErr          ....  1.000e-06

------------------------------
INITIAL GUESS: MODEL POTENTIAL
------------------------------
Loading Hartree-Fock densities                     ... done
Calculating cut-offs                               ... done
Initializing the effective Hamiltonian             ... done
Setting up the integral package (SHARK)            ... done
Starting the Coulomb interaction                   ... done (   0.3 sec)
Making the grid                                    ... done (   0.4 sec)
Mapping shells                                     ... done
Starting the XC term evaluation                    ... done (   0.5 sec)
  promolecular density results
     # of electrons  =     68.991142722
     EX              =    -95.216856273
     EC              =     -2.636558170
     EX+EC           =    -97.853414443
Transforming the Hamiltonian                       ... done (   0.0 sec)
Diagonalizing the Hamiltonian                      ... done (   0.0 sec)
Back transforming the eigenvectors                 ... done (   0.0 sec)
Now organizing SCF variables                       ... done
                      ------------------
                      INITIAL GUESS DONE (   1.3 sec)
                      ------------------
             **** ENERGY FILE WAS UPDATED (file_input.en.tmp) ****
Finished Guess after   1.6 sec
Maximum memory used throughout the entire GUESS-calculation: 16.7 MB

-------------------------------------------------------------------------------------------
                                      ORCA LEAN-SCF
                              memory conserving SCF solver
-------------------------------------------------------------------------------------------

----------------------------------------D-I-I-S--------------------------------------------
Iteration    Energy (Eh)           Delta-E    RMSDP     MaxDP     DIISErr   Damp  Time(sec)
-------------------------------------------------------------------------------------------
               ***  Starting incremental Fock matrix formation  ***
    1    -1865.0891959184450570     0.00e+00  2.04e-03  1.01e-01  1.02e-01  0.700   4.2
Warning: op=1 Small HOMO/LUMO gap (   0.098) - skipping pre-diagonalization
         Will do a full diagonalization
    2    -1865.2192696476590754    -1.30e-01  9.40e-04  4.39e-02  3.60e-02  0.700   2.8
                               ***Turning on AO-DIIS***
    3    -1865.2522597623292313    -3.30e-02  2.83e-04  6.80e-03  2.07e-02  0.700   2.4
    4    -1865.2746625104855411    -2.24e-02  3.83e-04  1.58e-02  1.35e-02  0.000   3.0
    5    -1865.3289466745995924    -5.43e-02  1.79e-04  9.23e-03  5.56e-03  0.000   2.2
                              *** Initializing SOSCF ***
---------------------------------------S-O-S-C-F--------------------------------------
Iteration    Energy (Eh)           Delta-E    RMSDP     MaxDP     MaxGrad    Time(sec)
--------------------------------------------------------------------------------------
    6    -1865.3296344588525244    -6.88e-04  6.94e-05  4.86e-03  1.51e-03     2.2
               *** Restarting incremental Fock matrix formation ***
    7    -1865.3296985400511403    -6.41e-05  6.79e-05  6.36e-03  1.63e-03     2.6
    8    -1865.3297021329699419    -3.59e-06  4.70e-05  1.41e-03  1.92e-03     2.0
    9    -1865.3297038120745128    -1.68e-06  4.01e-05  1.29e-03  9.25e-04     2.1
   10    -1865.3297113552321207    -7.54e-06  1.85e-05  6.43e-04  3.26e-04     2.1
   11    -1865.3297134234526311    -2.07e-06  1.27e-05  7.69e-04  2.12e-04     2.3
   12    -1865.3297147787270660    -1.36e-06  2.83e-06  1.73e-04  3.76e-05     3.4
   13    -1865.3297148496608315    -7.09e-08  7.13e-07  4.39e-05  1.42e-05     2.0
                 **** Energy Check signals convergence ****

               *****************************************************
               *                     SUCCESS                       *
               *           SCF CONVERGED AFTER  13 CYCLES          *
               *****************************************************

             **** ENERGY FILE WAS UPDATED (file_input.en.tmp) ****

----------------
TOTAL SCF ENERGY
----------------

Total Energy       :      -1865.32971484966083 Eh          -50758.20204 eV

Components:
Nuclear Repulsion  :        414.33220164352861 Eh           11274.55239 eV
Electronic Energy  :      -2279.66191649318898 Eh          -62032.75443 eV
One Electron Energy:      -3390.06396295322929 Eh          -92248.33025 eV
Two Electron Energy:       1110.40204646004008 Eh           30215.57581 eV

Virial components:
Potential Energy   :      -3724.20616696579600 Eh         -101340.80187 eV
Kinetic Energy     :       1858.87645211613540 Eh           50582.59983 eV
Virial Ratio       :          2.00347159313691

DFT components:
N(Alpha)           :       34.000038162943 electrons
N(Beta)            :       33.000038168706 electrons
N(Total)           :       67.000076331649 electrons
E(X)               :      -95.437565035116 Eh       
E(C)               :       -2.613402331543 Eh       
E(XC)              :      -98.050967366659 Eh       

---------------
SCF CONVERGENCE
---------------

  Last Energy change         ...    7.0934e-08  Tolerance :   1.0000e-06
  Last MAX-Density change    ...    4.3941e-05  Tolerance :   1.0000e-05
  Last RMS-Density change    ...    7.1292e-07  Tolerance :   1.0000e-06
  Last DIIS Error            ...    1.5132e-03  Tolerance :   1.0000e-06
  Last Orbital Gradient      ...    1.4183e-05  Tolerance :   5.0000e-05
  Last Orbital Rotation      ...    2.8859e-05  Tolerance :   5.0000e-05


----------------------
UHF SPIN CONTAMINATION
----------------------

Warning: in a DFT calculation there is little theoretical justification to 
         calculate <S**2> as in Hartree-Fock theory. We will do it anyways
         but you should keep in mind that the values have only limited relevance

Expectation value of <S**2>     :     0.750992
Ideal value S*(S+1) for S=0.5   :     0.750000
Deviation                       :     0.000992

----------------
ORBITAL ENERGIES
----------------
                 SPIN UP ORBITALS
  NO   OCC          E(Eh)            E(eV) 
   0   1.0000    -321.956847     -8760.8912 
   1   1.0000     -38.747782     -1054.3808 
   2   1.0000     -34.054489      -926.6697 
   3   1.0000     -34.054487      -926.6697 
   4   1.0000     -34.045665      -926.4296 
   5   1.0000     -14.367488      -390.9592 
   6   1.0000     -14.367482      -390.9591 
   7   1.0000     -14.367481      -390.9590 
   8   1.0000     -14.367446      -390.9581 
   9   1.0000      -4.534495      -123.3899 
  10   1.0000      -3.079277       -83.7914 
  11   1.0000      -3.079273       -83.7913 
  12   1.0000      -3.044691       -82.8503 
  13   1.0000      -1.143151       -31.1067 
  14   1.0000      -1.135380       -30.8953 
  15   1.0000      -1.135377       -30.8952 
  16   1.0000      -1.130470       -30.7616 
  17   1.0000      -0.789668       -21.4879 
  18   1.0000      -0.778887       -21.1946 
  19   1.0000      -0.776870       -21.1397 
  20   1.0000      -0.776849       -21.1391 
  21   1.0000      -0.771087       -20.9823 
  22   1.0000      -0.771077       -20.9821 
  23   1.0000      -0.767643       -20.8886 
  24   1.0000      -0.757508       -20.6128 
  25   1.0000      -0.713970       -19.4281 
  26   1.0000      -0.707635       -19.2557 
  27   1.0000      -0.654505       -17.8100 
  28   1.0000      -0.654488       -17.8095 
  29   1.0000      -0.619335       -16.8529 
  30   1.0000      -0.605097       -16.4655 
  31   1.0000      -0.605086       -16.4652 
  32   1.0000      -0.603557       -16.4236 
  33   1.0000      -0.539948       -14.6927 
  34   0.0000      -0.341649        -9.2967 
  35   0.0000      -0.281389        -7.6570 
  36   0.0000      -0.281363        -7.6563 
  37   0.0000      -0.273713        -7.4481 
  38   0.0000      -0.235555        -6.4098 
  39   0.0000      -0.226383        -6.1602 
  40   0.0000      -0.219673        -5.9776 
  41   0.0000      -0.219582        -5.9751 
  42   0.0000      -0.214811        -5.8453 
  43   0.0000      -0.213541        -5.8108 
  44   0.0000      -0.204571        -5.5666 

                 SPIN DOWN ORBITALS
  NO   OCC          E(Eh)            E(eV) 
   0   1.0000    -321.956787     -8760.8896 
   1   1.0000     -38.733664     -1053.9966 
   2   1.0000     -34.042021      -926.3305 
   3   1.0000     -34.040613      -926.2922 
   4   1.0000     -34.040611      -926.2921 
   5   1.0000     -14.364860      -390.8877 
   6   1.0000     -14.364855      -390.8876 
   7   1.0000     -14.364854      -390.8876 
   8   1.0000     -14.364819      -390.8866 
   9   1.0000      -4.507228      -122.6479 
  10   1.0000      -3.044241       -82.8380 
  11   1.0000      -3.044238       -82.8379 
  12   1.0000      -3.035251       -82.5934 
  13   1.0000      -1.139050       -30.9951 
  14   1.0000      -1.131299       -30.7842 
  15   1.0000      -1.131296       -30.7841 
  16   1.0000      -1.126250       -30.6468 
  17   1.0000      -0.787448       -21.4276 
  18   1.0000      -0.776802       -21.1379 
  19   1.0000      -0.774652       -21.0793 
  20   1.0000      -0.774631       -21.0788 
  21   1.0000      -0.768917       -20.9233 
  22   1.0000      -0.768907       -20.9230 
  23   1.0000      -0.765510       -20.8306 
  24   1.0000      -0.755342       -20.5539 
  25   1.0000      -0.705953       -19.2099 
  26   1.0000      -0.674047       -18.3417 
  27   1.0000      -0.644226       -17.5303 
  28   1.0000      -0.644209       -17.5298 
  29   1.0000      -0.610345       -16.6083 
  30   1.0000      -0.591180       -16.0868 
  31   1.0000      -0.591168       -16.0865 
  32   1.0000      -0.587569       -15.9886 
  33   0.0000      -0.500512       -13.6196 
  34   0.0000      -0.339659        -9.2426 
  35   0.0000      -0.280251        -7.6260 
  36   0.0000      -0.280226        -7.6253 
  37   0.0000      -0.273650        -7.4464 
  38   0.0000      -0.231084        -6.2881 
  39   0.0000      -0.225030        -6.1234 
  40   0.0000      -0.218192        -5.9373 
  41   0.0000      -0.218099        -5.9348 
  42   0.0000      -0.212942        -5.7944 
  43   0.0000      -0.211933        -5.7670 
*Only the first 10 virtual orbitals were printed.

                    ********************************
                    * MULLIKEN POPULATION ANALYSIS *
                    ********************************

--------------------------------------------
MULLIKEN ATOMIC CHARGES AND SPIN POPULATIONS
--------------------------------------------
   0 Cu:    0.451462    0.526066
   1 N :   -0.179694    0.120149
   2 N :   -0.179696    0.120157
   3 N :   -0.179844    0.120038
   4 N :   -0.179849    0.120045
   5 H :    0.192193   -0.001896
   6 H :    0.187424    0.000145
   7 H :    0.187314    0.000140
   8 H :    0.192191   -0.001896
   9 H :    0.187427    0.000148
  10 H :    0.187319    0.000137
  11 H :    0.192220   -0.001891
  12 H :    0.187369    0.000144
  13 H :    0.187285    0.000132
  14 H :    0.192219   -0.001891
  15 H :    0.187376    0.000140
  16 H :    0.187284    0.000134
Sum of atomic charges         :    2.0000000
Sum of atomic spin populations:    1.0000000

-----------------------------------------------------
MULLIKEN REDUCED ORBITAL CHARGES AND SPIN POPULATIONS
-----------------------------------------------------
CHARGE
  0 Cus       :     6.606051  s :     6.606051
      pz      :     4.045952  p :    12.544477
      px      :     4.249260
      py      :     4.249265
      dz2     :     1.947267  d :     9.397838
      dxz     :     1.990375
      dyz     :     1.990371
      dx2y2   :     1.485519
      dxy     :     1.984306
      f0      :     0.000015  f :     0.000172
      f+1     :     0.000022
      f-1     :     0.000022
      f+2     :     0.000013
      f-2     :     0.000001
      f+3     :     0.000049
      f-3     :     0.000049

  1 N s       :     3.384249  s :     3.384249
      pz      :     1.181481  p :     3.784629
      px      :     1.180082
      py      :     1.423066
      dz2     :     0.000479  d :     0.010817
      dxz     :     0.002835
      dyz     :     0.003786
      dx2y2   :     0.001045
      dxy     :     0.002671

  2 N s       :     3.384252  s :     3.384252
      pz      :     1.181461  p :     3.784628
      px      :     1.423075
      py      :     1.180092
      dz2     :     0.000480  d :     0.010816
      dxz     :     0.003786
      dyz     :     0.002834
      dx2y2   :     0.001045
      dxy     :     0.002671

  3 N s       :     3.384326  s :     3.384326
      pz      :     1.181554  p :     3.784702
      px      :     1.180084
      py      :     1.423064
      dz2     :     0.000474  d :     0.010816
      dxz     :     0.002841
      dyz     :     0.003787
      dx2y2   :     0.001048
      dxy     :     0.002666

  4 N s       :     3.384328  s :     3.384328
      pz      :     1.181535  p :     3.784704
      px      :     1.423095
      py      :     1.180074
      dz2     :     0.000475  d :     0.010816
      dxz     :     0.003788
      dyz     :     0.002840
      dx2y2   :     0.001048
      dxy     :     0.002666

  5 H s       :     0.763388  s :     0.763388
      pz      :     0.021624  p :     0.044419
      px      :     0.008679
      py      :     0.014116

  6 H s       :     0.768334  s :     0.768334
      pz      :     0.013400  p :     0.044242
      px      :     0.019652
      py      :     0.011190

  7 H s       :     0.768441  s :     0.768441
      pz      :     0.013377  p :     0.044245
      px      :     0.019429
      py      :     0.011439

  8 H s       :     0.763390  s :     0.763390
      pz      :     0.021626  p :     0.044419
      px      :     0.014114
      py      :     0.008679

  9 H s       :     0.768332  s :     0.768332
      pz      :     0.013396  p :     0.044241
      px      :     0.011441
      py      :     0.019404

 10 H s       :     0.768435  s :     0.768435
      pz      :     0.013380  p :     0.044246
      px      :     0.011189
      py      :     0.019676

 11 H s       :     0.763362  s :     0.763362
      pz      :     0.021613  p :     0.044418
      px      :     0.008679
      py      :     0.014126

 12 H s       :     0.768388  s :     0.768388
      pz      :     0.013375  p :     0.044243
      px      :     0.019423
      py      :     0.011444

 13 H s       :     0.768468  s :     0.768468
      pz      :     0.013411  p :     0.044247
      px      :     0.019653
      py      :     0.011183

 14 H s       :     0.763363  s :     0.763363
      pz      :     0.021616  p :     0.044418
      px      :     0.014125
      py      :     0.008677

 15 H s       :     0.768380  s :     0.768380
      pz      :     0.013382  p :     0.044243
      px      :     0.011193
      py      :     0.019668

 16 H s       :     0.768469  s :     0.768469
      pz      :     0.013403  p :     0.044246
      px      :     0.011433
      py      :     0.019410


SPIN
  0 Cus       :    -0.015457  s :    -0.015457
      pz      :     0.009122  p :    -0.002313
      px      :    -0.005718
      py      :    -0.005717
      dz2     :     0.003358  d :     0.543819
      dxz     :     0.000475
      dyz     :     0.000475
      dx2y2   :     0.538152
      dxy     :     0.001360
      f0      :     0.000006  f :     0.000016
      f+1     :     0.000004
      f-1     :     0.000004
      f+2     :     0.000000
      f-2     :     0.000000
      f+3     :     0.000001
      f-3     :     0.000001

  1 N s       :     0.017647  s :     0.017647
      pz      :     0.006800  p :     0.102666
      px      :     0.003294
      py      :     0.092572
      dz2     :     0.000060  d :    -0.000164
      dxz     :    -0.000049
      dyz     :    -0.000104
      dx2y2   :     0.000057
      dxy     :    -0.000129

  2 N s       :     0.017648  s :     0.017648
      pz      :     0.006796  p :     0.102674
      px      :     0.092581
      py      :     0.003297
      dz2     :     0.000060  d :    -0.000164
      dxz     :    -0.000104
      dyz     :    -0.000049
      dx2y2   :     0.000057
      dxy     :    -0.000129

  3 N s       :     0.017630  s :     0.017630
      pz      :     0.006817  p :     0.102572
      px      :     0.003297
      py      :     0.092458
      dz2     :     0.000060  d :    -0.000164
      dxz     :    -0.000049
      dyz     :    -0.000103
      dx2y2   :     0.000057
      dxy     :    -0.000128

  4 N s       :     0.017630  s :     0.017630
      pz      :     0.006812  p :     0.102579
      px      :     0.092476
      py      :     0.003291
      dz2     :     0.000060  d :    -0.000164
      dxz     :    -0.000103
      dyz     :    -0.000049
      dx2y2   :     0.000057
      dxy     :    -0.000128

  5 H s       :    -0.002503  s :    -0.002503
      pz      :     0.000173  p :     0.000607
      px      :    -0.000019
      py      :     0.000454

  6 H s       :    -0.000522  s :    -0.000522
      pz      :    -0.000010  p :     0.000667
      px      :     0.000096
      py      :     0.000581

  7 H s       :    -0.000527  s :    -0.000527
      pz      :    -0.000010  p :     0.000667
      px      :     0.000118
      py      :     0.000559

  8 H s       :    -0.002503  s :    -0.002503
      pz      :     0.000173  p :     0.000607
      px      :     0.000454
      py      :    -0.000019

  9 H s       :    -0.000520  s :    -0.000520
      pz      :    -0.000010  p :     0.000668
      px      :     0.000558
      py      :     0.000119

 10 H s       :    -0.000530  s :    -0.000530
      pz      :    -0.000010  p :     0.000667
      px      :     0.000581
      py      :     0.000096

 11 H s       :    -0.002499  s :    -0.002499
      pz      :     0.000173  p :     0.000607
      px      :    -0.000019
      py      :     0.000453

 12 H s       :    -0.000523  s :    -0.000523
      pz      :    -0.000010  p :     0.000667
      px      :     0.000119
      py      :     0.000558

 13 H s       :    -0.000535  s :    -0.000535
      pz      :    -0.000010  p :     0.000667
      px      :     0.000095
      py      :     0.000581

 14 H s       :    -0.002499  s :    -0.002499
      pz      :     0.000173  p :     0.000608
      px      :     0.000454
      py      :    -0.000019

 15 H s       :    -0.000527  s :    -0.000527
      pz      :    -0.000010  p :     0.000667
      px      :     0.000580
      py      :     0.000097

 16 H s       :    -0.000533  s :    -0.000533
      pz      :    -0.000010  p :     0.000667
      px      :     0.000559
      py      :     0.000118



                     *******************************
                     * LOEWDIN POPULATION ANALYSIS *
                     *******************************

-------------------------------------------
LOEWDIN ATOMIC CHARGES AND SPIN POPULATIONS
-------------------------------------------
   0 Cu:    0.328269    0.542306
   1 N :    0.056482    0.109038
   2 N :    0.056484    0.109046
   3 N :    0.056352    0.108940
   4 N :    0.056353    0.108947
   5 H :    0.121848    0.000769
   6 H :    0.119857    0.002335
   7 H :    0.119832    0.002331
   8 H :    0.121844    0.000769
   9 H :    0.119862    0.002337
  10 H :    0.119831    0.002328
  11 H :    0.121853    0.000772
  12 H :    0.119828    0.002333
  13 H :    0.119812    0.002323
  14 H :    0.121850    0.000772
  15 H :    0.119829    0.002330
  16 H :    0.119814    0.002325

----------------------------------------------------
LOEWDIN REDUCED ORBITAL CHARGES AND SPIN POPULATIONS
----------------------------------------------------
CHARGE
  0 Cus       :     6.500051  s :     6.500051
      pz      :     4.050947  p :    12.675123
      px      :     4.312086
      py      :     4.312091
      dz2     :     1.966980  d :     9.496329
      dxz     :     1.995725
      dyz     :     1.995728
      dx2y2   :     1.548958
      dxy     :     1.988938
      f0      :     0.000018  f :     0.000228
      f+1     :     0.000030
      f-1     :     0.000030
      f+2     :     0.000012
      f-2     :     0.000001
      f+3     :     0.000068
      f-3     :     0.000068

  1 N s       :     3.096293  s :     3.096293
      pz      :     1.206079  p :     3.819378
      px      :     1.204772
      py      :     1.408527
      dz2     :     0.002474  d :     0.027847
      dxz     :     0.008667
      dyz     :     0.008036
      dx2y2   :     0.004006
      dxy     :     0.004664

  2 N s       :     3.096294  s :     3.096294
      pz      :     1.206064  p :     3.819376
      px      :     1.408532
      py      :     1.204780
      dz2     :     0.002476  d :     0.027846
      dxz     :     0.008035
      dyz     :     0.008664
      dx2y2   :     0.004006
      dxy     :     0.004664

  3 N s       :     3.096353  s :     3.096353
      pz      :     1.206150  p :     3.819451
      px      :     1.204773
      py      :     1.408528
      dz2     :     0.002460  d :     0.027844
      dxz     :     0.008680
      dyz     :     0.008039
      dx2y2   :     0.004012
      dxy     :     0.004652

  4 N s       :     3.096354  s :     3.096354
      pz      :     1.206134  p :     3.819450
      px      :     1.408554
      py      :     1.204762
      dz2     :     0.002462  d :     0.027843
      dxz     :     0.008040
      dyz     :     0.008676
      dx2y2   :     0.004012
      dxy     :     0.004653

  5 H s       :     0.763999  s :     0.763999
      pz      :     0.052941  p :     0.114153
      px      :     0.018343
      py      :     0.042870

  6 H s       :     0.766250  s :     0.766250
      pz      :     0.032112  p :     0.113892
      px      :     0.049025
      py      :     0.032756

  7 H s       :     0.766284  s :     0.766284
      pz      :     0.032027  p :     0.113885
      px      :     0.048142
      py      :     0.033716

  8 H s       :     0.764002  s :     0.764002
      pz      :     0.052947  p :     0.114154
      px      :     0.042863
      py      :     0.018344

  9 H s       :     0.766247  s :     0.766247
      pz      :     0.032098  p :     0.113891
      px      :     0.033726
      py      :     0.048068

 10 H s       :     0.766282  s :     0.766282
      pz      :     0.032037  p :     0.113887
      px      :     0.032750
      py      :     0.049099

 11 H s       :     0.763994  s :     0.763994
      pz      :     0.052905  p :     0.114153
      px      :     0.018346
      py      :     0.042903

 12 H s       :     0.766279  s :     0.766279
      pz      :     0.032047  p :     0.113893
      px      :     0.048115
      py      :     0.033731

 13 H s       :     0.766302  s :     0.766302
      pz      :     0.032133  p :     0.113887
      px      :     0.049035
      py      :     0.032719

 14 H s       :     0.763996  s :     0.763996
      pz      :     0.052913  p :     0.114154
      px      :     0.042901
      py      :     0.018341

 15 H s       :     0.766276  s :     0.766276
      pz      :     0.032065  p :     0.113895
      px      :     0.032765
      py      :     0.049064

 16 H s       :     0.766301  s :     0.766301
      pz      :     0.032110  p :     0.113885
      px      :     0.033686
      py      :     0.048090


SPIN
  0 Cus       :    -0.010469  s :    -0.010469
      pz      :     0.011643  p :     0.002508
      px      :    -0.004568
      py      :    -0.004567
      dz2     :     0.002819  d :     0.550248
      dxz     :     0.000446
      dyz     :     0.000446
      dx2y2   :     0.545237
      dxy     :     0.001301
      f0      :     0.000008  f :     0.000019
      f+1     :     0.000004
      f-1     :     0.000004
      f+2     :     0.000000
      f-2     :     0.000000
      f+3     :     0.000001
      f-3     :     0.000001

  1 N s       :     0.016434  s :     0.016434
      pz      :     0.005442  p :     0.092903
      px      :     0.002119
      py      :     0.085342
      dz2     :     0.000044  d :    -0.000300
      dxz     :    -0.000101
      dyz     :    -0.000115
      dx2y2   :     0.000011
      dxy     :    -0.000139

  2 N s       :     0.016435  s :     0.016435
      pz      :     0.005437  p :     0.092911
      px      :     0.085352
      py      :     0.002122
      dz2     :     0.000044  d :    -0.000300
      dxz     :    -0.000115
      dyz     :    -0.000101
      dx2y2   :     0.000011
      dxy     :    -0.000139

  3 N s       :     0.016419  s :     0.016419
      pz      :     0.005460  p :     0.092821
      px      :     0.002122
      py      :     0.085239
      dz2     :     0.000044  d :    -0.000300
      dxz     :    -0.000101
      dyz     :    -0.000115
      dx2y2   :     0.000011
      dxy     :    -0.000139

  4 N s       :     0.016419  s :     0.016419
      pz      :     0.005455  p :     0.092828
      px      :     0.085256
      py      :     0.002117
      dz2     :     0.000044  d :    -0.000300
      dxz     :    -0.000115
      dyz     :    -0.000101
      dx2y2   :     0.000011
      dxy     :    -0.000139

  5 H s       :    -0.001997  s :    -0.001997
      pz      :     0.000479  p :     0.002766
      px      :     0.000015
      py      :     0.002272

  6 H s       :    -0.000484  s :    -0.000484
      pz      :     0.000117  p :     0.002819
      px      :     0.000260
      py      :     0.002442

  7 H s       :    -0.000488  s :    -0.000488
      pz      :     0.000117  p :     0.002819
      px      :     0.000288
      py      :     0.002414

  8 H s       :    -0.001997  s :    -0.001997
      pz      :     0.000479  p :     0.002766
      px      :     0.002273
      py      :     0.000015

  9 H s       :    -0.000482  s :    -0.000482
      pz      :     0.000117  p :     0.002819
      px      :     0.002414
      py      :     0.000288

 10 H s       :    -0.000490  s :    -0.000490
      pz      :     0.000117  p :     0.002819
      px      :     0.002442
      py      :     0.000260

 11 H s       :    -0.001993  s :    -0.001993
      pz      :     0.000480  p :     0.002765
      px      :     0.000015
      py      :     0.002270

 12 H s       :    -0.000484  s :    -0.000484
      pz      :     0.000117  p :     0.002817
      px      :     0.000289
      py      :     0.002411

 13 H s       :    -0.000494  s :    -0.000494
      pz      :     0.000117  p :     0.002817
      px      :     0.000259
      py      :     0.002440

 14 H s       :    -0.001993  s :    -0.001993
      pz      :     0.000480  p :     0.002765
      px      :     0.002270
      py      :     0.000015

 15 H s       :    -0.000487  s :    -0.000487
      pz      :     0.000117  p :     0.002817
      px      :     0.002439
      py      :     0.000261

 16 H s       :    -0.000492  s :    -0.000492
      pz      :     0.000117  p :     0.002817
      px      :     0.002413
      py      :     0.000287



                      *****************************
                      * MAYER POPULATION ANALYSIS *
                      *****************************

  NA   - Mulliken gross atomic population
  ZA   - Total nuclear charge
  QA   - Mulliken gross atomic charge
  VA   - Mayer's total valence
  BVA  - Mayer's bonded valence
  FA   - Mayer's free valence

  ATOM       NA         ZA         QA         VA         BVA        FA
  0 Cu    28.5485    29.0000     0.4515     2.6973     2.3881     0.3092
  1 N      7.1797     7.0000    -0.1797     3.4907     3.4781     0.0126
  2 N      7.1797     7.0000    -0.1797     3.4907     3.4781     0.0126
  3 N      7.1798     7.0000    -0.1798     3.4905     3.4779     0.0126
  4 N      7.1798     7.0000    -0.1798     3.4905     3.4779     0.0126
  5 H      0.8078     1.0000     0.1922     0.9729     0.9728     0.0000
  6 H      0.8126     1.0000     0.1874     0.9779     0.9779     0.0000
  7 H      0.8127     1.0000     0.1873     0.9779     0.9779     0.0000
  8 H      0.8078     1.0000     0.1922     0.9729     0.9728     0.0000
  9 H      0.8126     1.0000     0.1874     0.9779     0.9779     0.0000
 10 H      0.8127     1.0000     0.1873     0.9779     0.9779     0.0000
 11 H      0.8078     1.0000     0.1922     0.9729     0.9729     0.0000
 12 H      0.8126     1.0000     0.1874     0.9779     0.9779     0.0000
 13 H      0.8127     1.0000     0.1873     0.9779     0.9779     0.0000
 14 H      0.8078     1.0000     0.1922     0.9729     0.9729     0.0000
 15 H      0.8126     1.0000     0.1874     0.9779     0.9779     0.0000
 16 H      0.8127     1.0000     0.1873     0.9779     0.9779     0.0000

  Mayer bond orders larger than 0.100000
B(  0-Cu,  1-N ) :   0.5748 B(  0-Cu,  2-N ) :   0.5748 B(  0-Cu,  3-N ) :   0.5746 
B(  0-Cu,  4-N ) :   0.5745 B(  1-N ,  5-H ) :   0.9507 B(  1-N ,  6-H ) :   0.9515 
B(  1-N ,  7-H ) :   0.9515 B(  2-N ,  8-H ) :   0.9507 B(  2-N ,  9-H ) :   0.9515 
B(  2-N , 10-H ) :   0.9515 B(  3-N , 11-H ) :   0.9507 B(  3-N , 12-H ) :   0.9515 
B(  3-N , 13-H ) :   0.9515 B(  4-N , 14-H ) :   0.9507 B(  4-N , 15-H ) :   0.9515 
B(  4-N , 16-H ) :   0.9515 

-------
TIMINGS
-------

Total SCF time: 0 days 0 hours 0 min 33 sec 

Total time                  ....      33.854 sec
Sum of individual times     ....      33.734 sec  ( 99.6%)

SCF preparation             ....       0.216 sec  (  0.6%)
Fock matrix formation       ....      30.320 sec  ( 89.6%)
  Startup                   ....       0.132 sec  (  0.4% of F)
  Split-RI-J                ....       6.780 sec  ( 22.4% of F)
  XC integration            ....      23.139 sec  ( 76.3% of F)
    Basis function eval.    ....       7.664 sec  ( 33.1% of XC)
    Density eval.           ....       5.353 sec  ( 23.1% of XC)
    XC-Functional eval.     ....       1.019 sec  (  4.4% of XC)
    XC-Potential eval.      ....       7.517 sec  ( 32.5% of XC)
Diagonalization             ....       0.000 sec  (  0.0%)
Density matrix formation    ....       1.031 sec  (  3.0%)
Total Energy calculation    ....       0.799 sec  (  2.4%)
Population analysis         ....       0.179 sec  (  0.5%)
Orbital Transformation      ....       0.116 sec  (  0.3%)
Orbital Orthonormalization  ....       0.000 sec  (  0.0%)
DIIS solution               ....       0.648 sec  (  1.9%)
SOSCF solution              ....       0.425 sec  (  1.3%)
Finished LeanSCF after  34.1 sec

Maximum memory used throughout the entire LEANSCF-calculation: 16.5 MB

------------------------------------------------------------------------------
                         ORCA PROPERTY INTEGRAL CALCULATIONS
------------------------------------------------------------------------------

GBWName                                   ... file_input.gbw
Number of atoms                           ...     17
Number of basis functions                 ...    147
Max core memory                           ...   1024 MB

Dipole integrals                          ... YES
Quadrupole integrals                      ...  NO
Linear momentum integrals                 ...  NO
Angular momentum integrals                ...  NO
Higher moments length integrals           ...  NO
Higher moments velocity integrals         ...  NO
Kinetic energy integrals                  ...  NO
GIAO right hand sides                     ...  NO
GIAO dipole derivative integrals          ...  NO
SOC integrals                             ...  NO
EPR diamagnetic integrals (GIAO)          ...  NO
EPR gauge integrals                       ...  NO
Field gradient integrals                  ...  NO (   0 nuclei)
Spin-dipole/Fermi contact integrals       ...  NO (   0 nuclei)
Contact density integrals                 ...  NO (   0 nuclei)
Nucleus-orbit integrals                   ...  NO (   0 nuclei)
Geometric perturbations                   ... YES (  17 nuclei)

Choice of electric origin   ... Center of mass
Position of electric origin ... ( -0.3864,  0.8165,  0.0002) 
Choice of magnetic origin   ... GIAO
Position of magnetic origin ... (  0.0000,  0.0000,  0.0000) 

Calculating integrals                     ... Electric Dipole (Length)     done (  0.0 sec)
Calculating integrals                     ... Geometrical perturbation right hand sides

-----------------------
GEOMETRIC PERTURBATIONS (17 nuclei)
-----------------------

MaxCore                            ...   1024 MB
Number of batches                  ...      1

BATCH   0: Atoms    0 -   16 ( 51 perturbations)
   => H(core) and overlap derivative integrals     ... done (     0.4 sec)
   => Making and storing internal U-coefficients   ... done (     1.6 sec)
   => RI-J derivative integrals                    ... done (     4.8 sec)
   => RI-J response operators                      ... done (     1.5 sec)
   => XC derivative integrals                      ... done (   123.4 sec)
   => XC response operators                        ... done (    40.8 sec)
   => Completing and storing right hand sides      ... done (     0.4 sec)
   => Total time for right hand sides = 174.7 sec

  geometrical perturbations done (174.7 sec)

Property integrals calculated in 174.8 sec

Maximum memory used throughout the entire PROPINT-calculation: 68.0 MB

-------------------------   --------------------
FINAL SINGLE POINT ENERGY     -1865.329714849661
-------------------------   --------------------

------------------------------------------------------------------------------
                            ORCA SCF RESPONSE CALCULATION
------------------------------------------------------------------------------

GBWName                                 ... file_input.gbw
Number of atoms                         ...     17
Number of basis functions               ...    147
Max core memory                         ...   1024 MB

Electric field perturbation             ...  NO
Quadrupolar field perturbation          ...  NO
Magnetic field perturbation (no GIAO)   ...  NO
Magnetic field perturbation (with GIAO) ...  NO
Linear momentum (velocity) perturbation ...  NO
Spin-orbit coupling perturbation        ...  NO
Choice of electric origin               ... Center of mass
Position of electric origin             ...    -0.386437     0.816506     0.000153
Choice of magnetic origin               ... GIAO
Position of magnetic origin             ...     0.000000     0.000000     0.000000
Nuclear geometric perturbations         ... YES (  51 perturbations)
Nucleus-orbit perturbations             ...  NO (   0 perturbations)
Spin-dipole/Fermi contact perturbations ...  NO (   0 perturbations)

Total number of real perturbations      ...     51
Total number of imaginary perturbations ...      0
Total number of triplet perturbations   ...      0
Total number of SOC perturbations       ...      0


                                **********************
                                * REAL PERTURBATIONS *
                                **********************



-------------------
SHARK CP-SCF DRIVER
-------------------

Dimension of the orbital basis          ...    147
Dimension of the CPSCF-problem          ...   7604
Number of operators                     ...      2
Max. number of iterations               ...    128
Convergence Tolerance                   ... 1.0e-03
Number of perturbations                 ...     51
Perturbation type                       ... REAL

----------------------------
POPLE LINEAR EQUATION SOLVER
----------------------------

  ITERATION   0:   ||err||_max =   2.6442e-01 (  23.3 sec   0/ 51 done)
  ITERATION   1:   ||err||_max =   5.3167e-02 (  24.5 sec   0/ 51 done)
  ITERATION   2:   ||err||_max =   1.8628e-02 (  30.8 sec   0/ 51 done)
  ITERATION   3:   ||err||_max =   6.9982e-03 (  26.6 sec   4/ 51 done)
  ITERATION   4:   ||err||_max =   1.9266e-03 (  30.4 sec  15/ 51 done)
  ITERATION   5:   ||err||_max =   6.2123e-04 (  27.6 sec  51/ 51 done)

CP-SCF equations solved in 174.0 sec
Response densities calculated in   0.2 sec

Maximum memory used throughout the entire SCFRESP-calculation: 48.7 MB

------------------------------------------------------------------------------
                              ORCA PROPERTY CALCULATIONS
------------------------------------------------------------------------------

GBWName                                 ... file_input.gbw
Number of atoms                         ...     17
Number of basis functions               ...    147
Max core memory                         ...   1024 MB

Electric properties:
Dipole moment                           ... YES
Quadrupole moment                       ...  NO
Static polarizability (Dipole/Dipole)   ...  NO
Static polarizability (Dipole/Quad.)    ...  NO
Static polarizability (Quad./Quad.)     ...  NO
Static polarizability (Velocity)        ...  NO

Atomic electric properties:
Dipole moment                           ...  NO
Quadrupole moment                       ...  NO
Static polarizability                   ...  NO

Choice of electric origin               ... Center of mass
Position of electric origin             ...    -0.386437     0.816506     0.000153

General magnetic properties:
Magnetizability                         ...  NO

EPR properties:
g-Tensor (aka g-matrix)                 ...  NO
Zero-Field splitting spin-orbit         ...  NO
Zero-field splitting spin-spin          ...  NO
Hyperfine couplings                     ...  NO (   0 nuclei)
Quadrupole couplings                    ...  NO (   0 nuclei)
Contact density                         ...  NO (   0 nuclei)

NMR properties:
Chemical shifts                         ...  NO (   0 nuclei)
Spin-rotation constants                 ...  NO (   0 nuclei)
Spin-spin couplings                     ...  NO (   0 nuclei,    0 pairs)

Choice of magnetic origin               ... GIAO
Position of magnetic origin             ...     0.000000     0.000000     0.000000

Properties with geometric perturbations:
SCF Hessian                             ... YES
IR spectrum                             ... YES
VCD spectrum                            ...  NO
X-ray spectroscopy properties:
SCF XES/XAS/RIXS spectra                ...  NO


-------------
DIPOLE MOMENT
-------------

Method             : SCF
Type of density    : Electron Density
Multiplicity       :   2
Irrep              :   0
Energy             : -1865.3297148496608315 Eh
Relativity type    : 
Basis              : AO
                                X                 Y                 Z
Electronic contribution:     -0.002976336       0.002891093       0.001287374
Nuclear contribution   :      0.003925232      -0.003803938      -0.001547534
                        -----------------------------------------
Total Dipole Moment    :      0.000948896      -0.000912844      -0.000260161
                        -----------------------------------------
Magnitude (a.u.)       :      0.001342152
Magnitude (Debye)      :      0.003411479



--------------------
Rotational spectrum 
--------------------
 
Rotational constants in cm-1:             0.099322             0.099311             0.053800 
Rotational constants in MHz :          2977.589979          2977.263144          1612.894092 

Dipole components along the rotational axes: 
x,y,z [a.u.] :     0.001253    -0.000406    -0.000260 
x,y,z [Debye]:     0.003184    -0.001031    -0.000661 

 

Dipole moment calculation done in   0.1 sec 

-----------
SCF HESSIAN
-----------

Occupied/Occupied contributions to the Hessian:
   => Occupied/Occupied contributions              ... done (  0.1 sec)
Perturbed density contributions to the Hessian:
   => Perturbed density contributions              ... done (  0.3 sec)
Explicit contributions to the Hessian:
   => Nuclear repulsion Hessian                    ... done (  0.0 sec)
   => HCore and overlap Hessian                    ... done ( 12.1 sec)
   => RI-J Hessian                                 ... done ( 13.6 sec)
   => XC-Hessian                                   ... done (156.0 sec)
   => Explicit contributions done
Dipole derivatives                                 ... done (  0.5 sec)
Mass weighting the Hessian           ... done
Calculating normal modes             ... done
Scaling frequencies                  ... done

-----------------------
VIBRATIONAL FREQUENCIES
-----------------------

Scaling factor for frequencies =  1.000000000  (already applied!)

     0:       0.00 cm**-1
     1:       0.00 cm**-1
     2:       0.00 cm**-1
     3:       0.00 cm**-1
     4:       0.00 cm**-1
     5:       0.00 cm**-1
     6:      51.05 cm**-1
     7:      76.07 cm**-1
     8:     103.02 cm**-1
     9:     103.23 cm**-1
    10:     118.12 cm**-1
    11:     154.83 cm**-1
    12:     190.17 cm**-1
    13:     190.24 cm**-1
    14:     211.54 cm**-1
    15:     276.11 cm**-1
    16:     372.29 cm**-1
    17:     388.68 cm**-1
    18:     388.71 cm**-1
    19:     565.05 cm**-1
    20:     593.65 cm**-1
    21:     597.75 cm**-1
    22:     597.81 cm**-1
    23:     654.74 cm**-1
    24:     654.82 cm**-1
    25:     678.63 cm**-1
    26:     683.96 cm**-1
    27:    1243.28 cm**-1
    28:    1253.23 cm**-1
    29:    1253.26 cm**-1
    30:    1286.92 cm**-1
    31:    1572.38 cm**-1
    32:    1572.83 cm**-1
    33:    1572.95 cm**-1
    34:    1575.74 cm**-1
    35:    1585.95 cm**-1
    36:    1593.09 cm**-1
    37:    1593.18 cm**-1
    38:    1600.86 cm**-1
    39:    3341.45 cm**-1
    40:    3341.92 cm**-1
    41:    3341.93 cm**-1
    42:    3348.12 cm**-1
    43:    3438.25 cm**-1
    44:    3438.81 cm**-1
    45:    3438.84 cm**-1
    46:    3440.24 cm**-1
    47:    3442.80 cm**-1
    48:    3443.46 cm**-1
    49:    3443.53 cm**-1
    50:    3443.58 cm**-1


------------
NORMAL MODES
------------

These modes are the Cartesian displacements weighted by the diagonal matrix
M(i,i)=1/sqrt(m[i]) where m[i] is the mass of the displaced atom
Thus, these vectors are normalized but *not* orthogonal

                  0          1          2          3          4          5    
      0       0.000000   0.000000   0.000000   0.000000   0.000000   0.000000
      1       0.000000   0.000000   0.000000   0.000000   0.000000   0.000000
      2       0.000000   0.000000   0.000000   0.000000   0.000000   0.000000
      3       0.000000   0.000000   0.000000   0.000000   0.000000   0.000000
      4       0.000000   0.000000   0.000000   0.000000   0.000000   0.000000
      5       0.000000   0.000000   0.000000   0.000000   0.000000   0.000000
      6       0.000000   0.000000   0.000000   0.000000   0.000000   0.000000
      7       0.000000   0.000000   0.000000   0.000000   0.000000   0.000000
      8       0.000000   0.000000   0.000000   0.000000   0.000000   0.000000
      9       0.000000   0.000000   0.000000   0.000000   0.000000   0.000000
     10       0.000000   0.000000   0.000000   0.000000   0.000000   0.000000
     11       0.000000   0.000000   0.000000   0.000000   0.000000   0.000000
     12       0.000000   0.000000   0.000000   0.000000   0.000000   0.000000
     13       0.000000   0.000000   0.000000   0.000000   0.000000   0.000000
     14       0.000000   0.000000   0.000000   0.000000   0.000000   0.000000
     15       0.000000   0.000000   0.000000   0.000000   0.000000   0.000000
     16       0.000000   0.000000   0.000000   0.000000   0.000000   0.000000
     17       0.000000   0.000000   0.000000   0.000000   0.000000   0.000000
     18       0.000000   0.000000   0.000000   0.000000   0.000000   0.000000
     19       0.000000   0.000000   0.000000   0.000000   0.000000   0.000000
     20       0.000000   0.000000   0.000000   0.000000   0.000000   0.000000
     21       0.000000   0.000000   0.000000   0.000000   0.000000   0.000000
     22       0.000000   0.000000   0.000000   0.000000   0.000000   0.000000
     23       0.000000   0.000000   0.000000   0.000000   0.000000   0.000000
     24       0.000000   0.000000   0.000000   0.000000   0.000000   0.000000
     25       0.000000   0.000000   0.000000   0.000000   0.000000   0.000000
     26       0.000000   0.000000   0.000000   0.000000   0.000000   0.000000
     27       0.000000   0.000000   0.000000   0.000000   0.000000   0.000000
     28       0.000000   0.000000   0.000000   0.000000   0.000000   0.000000
     29       0.000000   0.000000   0.000000   0.000000   0.000000   0.000000
     30       0.000000   0.000000   0.000000   0.000000   0.000000   0.000000
     31       0.000000   0.000000   0.000000   0.000000   0.000000   0.000000
     32       0.000000   0.000000   0.000000   0.000000   0.000000   0.000000
     33       0.000000   0.000000   0.000000   0.000000   0.000000   0.000000
     34       0.000000   0.000000   0.000000   0.000000   0.000000   0.000000
     35       0.000000   0.000000   0.000000   0.000000   0.000000   0.000000
     36       0.000000   0.000000   0.000000   0.000000   0.000000   0.000000
     37       0.000000   0.000000   0.000000   0.000000   0.000000   0.000000
     38       0.000000   0.000000   0.000000   0.000000   0.000000   0.000000
     39       0.000000   0.000000   0.000000   0.000000   0.000000   0.000000
     40       0.000000   0.000000   0.000000   0.000000   0.000000   0.000000
     41       0.000000   0.000000   0.000000   0.000000   0.000000   0.000000
     42       0.000000   0.000000   0.000000   0.000000   0.000000   0.000000
     43       0.000000   0.000000   0.000000   0.000000   0.000000   0.000000
     44       0.000000   0.000000   0.000000   0.000000   0.000000   0.000000
     45       0.000000   0.000000   0.000000   0.000000   0.000000   0.000000
     46       0.000000   0.000000   0.000000   0.000000   0.000000   0.000000
     47       0.000000   0.000000   0.000000   0.000000   0.000000   0.000000
     48       0.000000   0.000000   0.000000   0.000000   0.000000   0.000000
     49       0.000000   0.000000   0.000000   0.000000   0.000000   0.000000
     50       0.000000   0.000000   0.000000   0.000000   0.000000   0.000000
                  6          7          8          9         10         11    
      0      -0.000010  -0.000035   0.008976  -0.008368  -0.000017   0.000096
      1       0.000013  -0.000024  -0.008292  -0.009037   0.000042   0.000105
      2       0.000013  -0.000119   0.000002  -0.000040   0.000814  -0.180706
      3       0.000638  -0.006401  -0.021016   0.020605   0.024750  -0.000752
      4      -0.036064   0.000038  -0.007401  -0.006995   0.000342   0.020836
      5      -0.198825   0.000860  -0.015760  -0.016754  -0.000780   0.154657
      6       0.036076  -0.000067   0.006888  -0.007521   0.000408   0.020849
      7       0.000595  -0.006453   0.020455   0.021066  -0.024813   0.000328
      8       0.198808  -0.000669   0.016604  -0.015872  -0.000536   0.154704
      9      -0.000631   0.006566  -0.020878   0.020557  -0.024738   0.000280
     10       0.036056  -0.000070  -0.007496  -0.006964  -0.000330  -0.020679
     11      -0.198678   0.000845   0.016159   0.016817  -0.000743   0.154681
     12      -0.036048   0.000010   0.006987  -0.007492  -0.000375  -0.020662
     13      -0.000629   0.006561   0.020339   0.021114   0.024674  -0.000802
     14       0.198649  -0.000640  -0.017011   0.015969  -0.000643   0.154723
     15       0.000638   0.288996  -0.326243   0.309984   0.320828   0.007233
     16       0.068838   0.005438  -0.006455   0.006338   0.007047  -0.149695
     17      -0.267022   0.001176  -0.020355  -0.021705  -0.001300   0.264627
     18      -0.000116  -0.142835   0.111527  -0.104735  -0.106649  -0.006254
     19      -0.101704   0.060336  -0.081638   0.058758   0.064813   0.124362
     20      -0.235494   0.244835  -0.261488   0.213336   0.237548   0.221140
     21       0.002433  -0.139988   0.108176  -0.101588  -0.103583  -0.004475
     22      -0.102703  -0.065049   0.067122  -0.083172  -0.070360   0.123332
     23      -0.238581  -0.243183   0.227592  -0.250268  -0.240086   0.212730
     24      -0.068878  -0.006118  -0.006810  -0.006960   0.007452  -0.149677
     25       0.003036   0.288487   0.310020   0.325806  -0.321639  -0.010081
     26       0.266985  -0.000593   0.021752  -0.020245  -0.001231   0.264668
     27       0.103103   0.065223   0.083091   0.067161  -0.070592   0.122416
     28       0.001043  -0.140192  -0.102275  -0.108141   0.104177   0.004599
     29       0.240823   0.242948   0.250222   0.226841  -0.240265   0.211338
     30       0.101352  -0.059874  -0.058575  -0.081588   0.064932   0.125297
     31      -0.001514  -0.142358  -0.104777  -0.110815   0.106552   0.006403
     32       0.233218  -0.244379  -0.213925  -0.261301   0.238577   0.222681
     33      -0.002413  -0.288125  -0.325999   0.309414  -0.321982  -0.008473
     34      -0.068810  -0.006014  -0.006889   0.006948  -0.007596   0.149728
     35      -0.266950   0.001482   0.021249   0.021489  -0.000924   0.264808
     36      -0.001446   0.139858   0.108242  -0.101415   0.104145   0.003874
     37       0.102894   0.065160   0.067182  -0.083338   0.070888  -0.122461
     38      -0.240127  -0.242751  -0.227106   0.250056  -0.241130   0.212628
[...]
     31      -0.225664   0.189304   0.087788   0.271531   0.187822   0.273797
     32       0.144488  -0.112701  -0.050086  -0.163830  -0.113009  -0.182128
     33       0.003684   0.005453  -0.006883   0.002723  -0.005712  -0.007541
     34      -0.156307  -0.212102   0.250327  -0.131575   0.215284  -0.012509
     35       0.267896   0.334656  -0.394825   0.207477  -0.340314   0.019474
     36      -0.222801   0.166901  -0.170622   0.150043  -0.167454   0.286456
     37      -0.077769   0.065534  -0.066901   0.059675  -0.065744   0.115431
     38      -0.144458   0.099065  -0.099851   0.092574  -0.100062   0.192107
     39       0.226153  -0.199128   0.263774  -0.077525   0.207952   0.268149
     40      -0.068621   0.069094  -0.092107   0.026479  -0.072142  -0.095590
     41      -0.145433   0.119368  -0.160278   0.044041  -0.125924  -0.179374
     42       0.156432   0.209491  -0.136657  -0.247848   0.217386   0.013930
     43       0.002662   0.003083  -0.001264  -0.003924   0.002940   0.008045
     44      -0.268183  -0.330588   0.215546   0.390964  -0.343676  -0.022226
     45       0.068965  -0.058215   0.020600   0.077819  -0.058750  -0.104327
     46       0.225809  -0.167351   0.060664   0.222063  -0.169021  -0.291554
     47       0.144671  -0.097998   0.032397   0.132130  -0.099441  -0.192698
     48       0.077656  -0.075912   0.069392   0.081312  -0.082082   0.105296
     49      -0.223653   0.193691  -0.175202  -0.207513   0.209364  -0.262055
     50       0.145521  -0.117653   0.109606   0.125263  -0.128635   0.177854
                 48         49         50    
      0      -0.000013  -0.000023   0.000016
      1      -0.000014   0.000021   0.000018
      2      -0.000002  -0.000000   0.000002
      3      -0.008070   0.040763  -0.053878
      4       0.000407   0.000178  -0.002129
      5       0.003363  -0.003208  -0.007085
      6       0.000685   0.001459   0.000087
      7      -0.007273  -0.037860  -0.056165
      8       0.003237   0.003810  -0.006802
      9       0.054951   0.039948  -0.006173
     10       0.001251  -0.000237  -0.000719
     11       0.000283   0.006794   0.003236
     12      -0.000957   0.001828  -0.000366
     13       0.055836  -0.038339  -0.008298
     14       0.000463  -0.007058   0.002797
     15      -0.002218   0.008815  -0.013485
     16      -0.018844   0.018966   0.038191
     17      -0.030216   0.030434   0.061456
     18       0.043070  -0.276119   0.413191
     19      -0.014991   0.098127  -0.146543
     20       0.029939  -0.184982   0.273568
     21       0.070606  -0.297811   0.346892
     22       0.027829  -0.119024   0.138422
     23      -0.046865   0.199849  -0.236099
     24      -0.018000  -0.021779   0.037233
     25      -0.002775  -0.008958  -0.012486
     26      -0.029022  -0.035493   0.059115
     27      -0.014722  -0.099917  -0.168631
     28       0.037542   0.249372   0.421643
     29       0.026568   0.169720   0.283333
     30       0.022885   0.100867   0.130698
     31       0.065625   0.284446   0.369164
     32      -0.042921  -0.187913  -0.247478
     33       0.013097   0.008110  -0.001273
     34       0.000786   0.037788   0.018505
     35      -0.000367  -0.060095  -0.029839
     36      -0.387808  -0.308506   0.030284
     37      -0.154913  -0.123515   0.012358
     38      -0.261565  -0.205996   0.021183
     39      -0.386713  -0.253429   0.056852
     40       0.136462   0.089660  -0.020381
     41       0.258452   0.171176  -0.036829
     42       0.001054  -0.038805   0.016145
     43       0.013333  -0.009307  -0.001045
     44      -0.001622   0.062307  -0.026006
     45      -0.141959   0.107643   0.017126
     46      -0.400478   0.302958   0.047546
     47      -0.266325   0.199352   0.032244
     48       0.153876  -0.094883  -0.027735
     49      -0.386567   0.237837   0.068836
     50       0.261973  -0.163049  -0.045604


-----------
IR SPECTRUM
-----------

 Mode   freq       eps      Int      T**2         TX        TY        TZ
       cm**-1   L/(mol*cm) km/mol    a.u.
----------------------------------------------------------------------------
  6:     51.05   0.000000    0.00  0.000000  (-0.000008 -0.000000 -0.000008)
  7:     76.07   0.000000    0.00  0.000000  ( 0.000063  0.000041  0.000311)
  8:    103.02   0.000342    1.73  0.001035  (-0.023690  0.021770  0.000002)
  9:    103.23   0.000346    1.75  0.001044  ( 0.021892  0.023773 -0.000034)
 10:    118.12   0.000000    0.00  0.000001  ( 0.000042 -0.000109 -0.001114)
 11:    154.83   0.005060   25.57  0.010198  (-0.000104 -0.000110  0.100983)
 12:    190.17   0.001563    7.90  0.002565  (-0.033563  0.037922  0.000008)
 13:    190.24   0.001560    7.88  0.002559  ( 0.037881  0.033530  0.000094)
 14:    211.54   0.000000    0.00  0.000000  ( 0.000023 -0.000030  0.000260)
 15:    276.11   0.000006    0.03  0.000007  (-0.000071 -0.000074 -0.002693)
 16:    372.29   0.000000    0.00  0.000000  ( 0.000058 -0.000055 -0.000003)
 17:    388.68   0.000055    0.28  0.000044  (-0.006145 -0.002572 -0.000000)
 18:    388.71   0.000055    0.28  0.000044  ( 0.002569 -0.006143 -0.000001)
 19:    565.05   0.000000    0.00  0.000000  ( 0.000084  0.000094  0.000081)
 20:    593.65   0.000001    0.00  0.000000  (-0.000451  0.000425  0.000002)
 21:    597.75   0.000411    2.08  0.000215  (-0.010241 -0.010475  0.000056)
 22:    597.81   0.000401    2.03  0.000209  (-0.010359  0.010106 -0.000005)
 23:    654.74   0.011502   58.12  0.005482  (-0.046357  0.057732 -0.000121)
 24:    654.82   0.011504   58.14  0.005483  ( 0.057727  0.046360 -0.000992)
 25:    678.63   0.026513  133.99  0.012192  ( 0.000401  0.000415  0.110416)
 26:    683.96   0.000042    0.21  0.000019  (-0.000057  0.000038 -0.004373)
 27:   1243.28   0.001490    7.53  0.000374  ( 0.000028  0.000013  0.019341)
 28:   1253.23   0.017354   87.70  0.004321  ( 0.060391  0.025965  0.000047)
 29:   1253.26   0.017377   87.82  0.004327  (-0.026022  0.060414  0.000023)
 30:   1286.92   0.000000    0.00  0.000000  (-0.000063  0.000065  0.000016)
 31:   1572.38   0.000428    2.16  0.000085  (-0.006613  0.006364  0.000801)
 32:   1572.83   0.007344   37.11  0.001457  ( 0.024994  0.028491 -0.004550)
 33:   1572.95   0.006779   34.26  0.001345  ( 0.027648 -0.024094  0.000007)
 34:   1575.74   0.026690  134.88  0.005286  (-0.001490 -0.001562 -0.072671)
 35:   1585.95   0.000008    0.04  0.000002  ( 0.000770  0.000804 -0.000556)
 36:   1593.09   0.004583   23.16  0.000898  ( 0.020713 -0.021649 -0.000018)
 37:   1593.18   0.004552   23.00  0.000892  ( 0.021582  0.020633  0.000363)
 38:   1600.86   0.000004    0.02  0.000001  (-0.000662  0.000629  0.000011)
 39:   3341.45   0.000443    2.24  0.000041  ( 0.000427  0.000324 -0.006411)
 40:   3341.92   0.030733  155.31  0.002870  ( 0.027745  0.045825  0.000069)
 41:   3341.93   0.030804  155.67  0.002876  (-0.045865  0.027801 -0.000027)
 42:   3348.12   0.000000    0.00  0.000000  ( 0.000075 -0.000060  0.000001)
 43:   3438.25   0.000045    0.23  0.000004  (-0.001450  0.001362  0.000318)
 44:   3438.81   0.000007    0.03  0.000001  ( 0.000062 -0.000059  0.000770)
 45:   3438.84   0.000092    0.46  0.000008  (-0.000026 -0.000192 -0.002878)
 46:   3440.24   0.066078  333.93  0.005994  ( 0.002270  0.002358 -0.077351)
 47:   3442.80   0.000002    0.01  0.000000  (-0.000007  0.000015 -0.000377)
 48:   3443.46   0.009398   47.49  0.000852  (-0.019696 -0.021222 -0.003656)
 49:   3443.53   0.025290  127.81  0.002292  (-0.035445  0.032180 -0.000168)
 50:   3443.58   0.016231   82.03  0.001471  ( 0.025464  0.028411  0.003908)

* The epsilon (eps) is given for a Dirac delta lineshape.
** The dipole moment derivative (T) already includes vibrational overlap.

The first frequency considered to be a vibration is 6
The total number of vibrations considered is 45


--------------------------
THERMOCHEMISTRY AT 298.15K
--------------------------

Temperature         ...   298.15 K
Pressure            ...     1.00 atm
Total Mass          ...   131.67 AMU
Quasi RRHO          ...     True
Cut-Off Frequency   ...     1.00 cm^-1

Throughout the following assumptions are being made:
  (1) The electronic state is orbitally nondegenerate
      but the spin degeneracy is treated
  (2) There are no thermally accessible electronically excited states
  (3) Hindered rotations indicated by low frequency modes are not
      treated as such but are treated as vibrations and this may
      cause some error
  (4) All equations used are the standard statistical mechanics
      equations for an ideal gas
  (5) All vibrations are strictly harmonic

freq.      51.05  E(vib)   ...       0.52 
freq.      76.07  E(vib)   ...       0.49 
freq.     103.02  E(vib)   ...       0.46 
freq.     103.23  E(vib)   ...       0.46 
freq.     118.12  E(vib)   ...       0.44 
freq.     154.83  E(vib)   ...       0.40 
freq.     190.17  E(vib)   ...       0.36 
freq.     190.24  E(vib)   ...       0.36 
freq.     211.54  E(vib)   ...       0.34 
freq.     276.11  E(vib)   ...       0.28 
freq.     372.29  E(vib)   ...       0.21 
freq.     388.68  E(vib)   ...       0.20 
freq.     388.71  E(vib)   ...       0.20 
freq.     565.05  E(vib)   ...       0.11 
freq.     593.65  E(vib)   ...       0.10 
freq.     597.75  E(vib)   ...       0.10 
freq.     597.81  E(vib)   ...       0.10 
freq.     654.74  E(vib)   ...       0.08 
freq.     654.82  E(vib)   ...       0.08 
freq.     678.63  E(vib)   ...       0.08 
freq.     683.96  E(vib)   ...       0.07 
freq.    1243.28  E(vib)   ...       0.01 
freq.    1253.23  E(vib)   ...       0.01 
freq.    1253.26  E(vib)   ...       0.01 
freq.    1286.92  E(vib)   ...       0.01 
freq.    1572.38  E(vib)   ...       0.00 
freq.    1572.83  E(vib)   ...       0.00 
freq.    1572.95  E(vib)   ...       0.00 
freq.    1575.74  E(vib)   ...       0.00 
freq.    1585.95  E(vib)   ...       0.00 
freq.    1593.09  E(vib)   ...       0.00 
freq.    1593.18  E(vib)   ...       0.00 
freq.    1600.86  E(vib)   ...       0.00 
freq.    3341.45  E(vib)   ...       0.00 
freq.    3341.92  E(vib)   ...       0.00 
freq.    3341.93  E(vib)   ...       0.00 
freq.    3348.12  E(vib)   ...       0.00 
freq.    3438.25  E(vib)   ...       0.00 
freq.    3438.81  E(vib)   ...       0.00 
freq.    3438.84  E(vib)   ...       0.00 
freq.    3440.24  E(vib)   ...       0.00 
freq.    3442.80  E(vib)   ...       0.00 
freq.    3443.46  E(vib)   ...       0.00 
freq.    3443.53  E(vib)   ...       0.00 
freq.    3443.58  E(vib)   ...       0.00 

------------
INNER ENERGY
------------

The inner energy is: U= E(el) + E(ZPE) + E(vib) + E(rot) + E(trans)
    E(el)   - is the total energy from the electronic structure calculation
              = E(kin-el) + E(nuc-el) + E(el-el) + E(nuc-nuc)
    E(ZPE)  - the the zero temperature vibrational energy from the frequency calculation
    E(vib)  - the the finite temperature correction to E(ZPE) due to population
              of excited vibrational states
    E(rot)  - is the rotational thermal energy
    E(trans)- is the translational thermal energy

Summary of contributions to the inner energy U:
Electronic energy                ...  -1865.32971485 Eh
Zero point energy                ...      0.15094468 Eh      94.72 kcal/mol
Thermal vibrational correction   ...      0.00878395 Eh       5.51 kcal/mol
Thermal rotational correction    ...      0.00141627 Eh       0.89 kcal/mol
Thermal translational correction ...      0.00141627 Eh       0.89 kcal/mol
-----------------------------------------------------------------------
Total thermal energy                  -1865.16715368 Eh


Summary of corrections to the electronic energy:
(perhaps to be used in another calculation)
Total thermal correction                  0.01161649 Eh       7.29 kcal/mol
Non-thermal (ZPE) correction              0.15094468 Eh      94.72 kcal/mol
-----------------------------------------------------------------------
Total correction                          0.16256117 Eh     102.01 kcal/mol


--------
ENTHALPY
--------

The enthalpy is H = U + kB*T
                kB is Boltzmann's constant
Total thermal energy              ...  -1865.16715368 Eh 
Thermal Enthalpy correction       ...      0.00094421 Eh       0.59 kcal/mol
-----------------------------------------------------------------------
Total Enthalpy                    ...  -1865.16620947 Eh


Note: Only C1 symmetry has been detected, increase convergence thresholds 
      if your molecule has a higher symmetry. Symmetry factor of 1.0 is   
      used for the rotational entropy correction. 
 

Note: Rotational entropy computed according to Herzberg 
Infrared and Raman Spectra, Chapter V,1, Van Nostrand Reinhold, 1945 
Point Group:  C1, Symmetry Number:   1  
Rotational constants in cm-1:     0.099322     0.099311     0.053800 

Vibrational entropy computed according to the QRRHO of S. Grimme
Chem.Eur.J. 2012 18 9955 using a reference frequency of 100.0 cm-1


-------
ENTROPY
-------

The entropy contributions are T*S = T*(S(el)+S(vib)+S(rot)+S(trans))
     S(el)   - electronic entropy
     S(vib)  - vibrational entropy
     S(rot)  - rotational entropy
     S(trans)- translational entropy
The entropies will be listed as multiplied by the temperature to get
units of energy

Electronic entropy                ...      0.00065446 Eh      0.41 kcal/mol
Vibrational entropy               ...      0.01585266 Eh      9.95 kcal/mol
Rotational entropy                ...      0.01307102 Eh      8.20 kcal/mol
Translational entropy             ...      0.01926094 Eh     12.09 kcal/mol
-----------------------------------------------------------------------
Final entropy term                ...      0.04883908 Eh     30.65 kcal/mol

In case the symmetry of your molecule has not been determined correctly
or in case you have a reason to use a different symmetry number we print 
out the resulting rotational entropy values for sn=1,12:

 non-linear molecules -----------------------------------
|  sn= 1 | S(rot)=       0.01307102 Eh      8.20 kcal/mol|
|  sn= 2 | S(rot)=       0.01241656 Eh      7.79 kcal/mol|
|  sn= 3 | S(rot)=       0.01203373 Eh      7.55 kcal/mol|
|  sn= 4 | S(rot)=       0.01176211 Eh      7.38 kcal/mol|
|  sn= 5 | S(rot)=       0.01155142 Eh      7.25 kcal/mol|
|  sn= 6 | S(rot)=       0.01137927 Eh      7.14 kcal/mol|
|  sn= 7 | S(rot)=       0.01123373 Eh      7.05 kcal/mol|
|  sn= 8 | S(rot)=       0.01110765 Eh      6.97 kcal/mol|
|  sn= 9 | S(rot)=       0.01099644 Eh      6.90 kcal/mol|
|  sn=10 | S(rot)=       0.01089696 Eh      6.84 kcal/mol|
|  sn=11 | S(rot)=       0.01080697 Eh      6.78 kcal/mol|
|  sn=12 | S(rot)=       0.01072482 Eh      6.73 kcal/mol|
 linear molecules ---------------------------------------
|  Dinfh | S(rot)=       0.00808515 Eh      5.07 kcal/mol|
|  Cinfv | S(rot)=       0.00873961 Eh      5.48 kcal/mol|
 --------------------------------------------------------


-------------------
GIBBS FREE ENERGY
-------------------

The Gibbs free energy is G = H - T*S

Total enthalpy                    ...  -1865.16620947 Eh 
Total entropy correction          ...     -0.04883908 Eh    -30.65 kcal/mol
-----------------------------------------------------------------------
Final Gibbs free energy         ...  -1865.21504855 Eh

For completeness - the Gibbs free energy minus the electronic energy
G-E(el)                           ...      0.11466630 Eh     71.95 kcal/mol


Maximum memory used throughout the entire PROP-calculation: 35.3 MB

--------------------------------
SUGGESTED CITATIONS FOR THIS RUN
--------------------------------

Below you find a list of papers that are relevant to this ORCA run
We neither can nor want to force you to cite these papers, but we appreciate if you do
You receive ORCA, which is the product of decades of hard work by many enthusiastic individuals, for free
The only thing we kindly ask in return is that you cite our papers,
We deeply appreciate it, if you show your appreciation for ORCA by not just citing the generic ORCA reference.

Please note that relegating all ORCA citations to the supporting information does *not* help us.
SI sections are not indexed - citations you put there will not count into any citation statistics
But we need these citations in order to attract the funding resources that allow us to do what we are doing

Therefore, if you are a happy ORCA user, please consider citing a few of the papers listed below in the main body of your paper

In addition to the list printed below, the program has created the file file_input.bibtex that contains the list in bibtex format
You can import this file easily into all common literature databanks and citation aid programs


List of essential papers. We consider these as the minimum necessary citations

  1. Neese,F.
     Software update: the ORCA program system, version 5.0
     WIRES Comput. Molec. Sci., 2022 12(1)e1606
     doi.org/10.1002/wcms.1606

List of papers to cite with high priority. The work reported in these papers was absolutely
necessary for this run to complete.
Our perspective: the developers of density functionals and basis sets usually get cited in chemistry papers
Good! But without the algorithms to do something with them, the functionals or basis sets would not do anything.
Hence, in our opinion, the algorithm design and method developments papers are equally worthy of getting cited

  1. Neese,F.
     An improvement of the resolution of the identity approximation for the formation of the Coulomb matrix
     J. Comp. Chem., 2003 24(14)1740-1747
     doi.org/10.1002/jcc.10318
  2. Bykov,D.; Petrenko,T.; Izsak,R.; Kossmann,S.; Becker,U.; Valeev,E.; Neese,F.
     Efficient implementation of the analytic second derivatives of Hartree-Fock and hybrid DFT energies: a detailed analysis of different approximations
     Molec. Phys., 2015 113 1961-1977
     doi.org/10.1080/00268976.2015.1025114
  3. Neese,F.
     The SHARK Integral Generation and Digestion System
     J. Comp. Chem., 2022  1-16
     doi.org/10.1002/jcc.26942

List of suggested additional citations. These are papers that are important in the 'surrounding' of 
of this run, or papers that preceded the highly important papers. If you like your results we are grateful for a citation.

  1. Neese,F.
     The ORCA program system
     WIRES Comput. Molec. Sci., 2012 2(1)73-78
     doi.org/10.1002/wcms.81
  2. Neese,F.
     Software update: the ORCA program system, version 4.0
     WIRES Comput. Molec. Sci., 2018 8(1)1-6
     doi.org/10.1002/wcms.1327
  3. Neese,F.; Wennmohs,F.; Becker,U.; Riplinger,C.
     The ORCA quantum chemistry program package
     J. Chem. Phys., 2020 152 Art. No. L224108
     doi.org/10.1063/5.0004608

List of optional additional citations

  1. Neese,F.
     Approximate second-order SCF convergence for spin unrestricted wavefunctions
     Chem. Phys. Lett., 2000 325(1-3)93-98
     doi.org/10.1016/s0009-2614(00)00662-x

Timings for individual modules:

Sum of individual times          ...      576.576 sec (=   9.610 min)
Startup calculation              ...        2.678 sec (=   0.045 min)   0.5 %
SCF iterations                   ...       36.530 sec (=   0.609 min)   6.3 %
Property integrals               ...      175.191 sec (=   2.920 min)  30.4 %
SCF Response                     ...      177.794 sec (=   2.963 min)  30.8 %
Property calculations            ...      184.383 sec (=   3.073 min)  32.0 %
                             ****ORCA TERMINATED NORMALLY****
TOTAL RUN TIME: 0 days 0 hours 9 minutes 38 seconds 48 msec
